0.0011625128539 2.39897547203 1.56922350688 1.06622618632
0.0025179230839 2.23863664566 1.42517967335 0.988236965225
0.0038515980495 2.19085932071 1.37631687863 0.965882940309
0.0052042119369 2.16909569884 1.35047695947 0.954773139303
0.0065665288587 2.15907739465 1.33678045889 0.949372084315
0.0079394727763 2.15501005791 1.3297602053 0.947076823811
0.0093322986071 2.15498824218 1.32615232343 0.946185444245
0.010746055818 2.15752251222 1.32412354648 0.946019717874
0.012182792207 2.16208432649 1.32236943383 0.946170220411
0.013643766384 2.16850602087 1.32070888417 0.946779539266
0.015124999639 2.17644246956 1.31936464471 0.947926621617
0.016623906844 2.18575291517 1.31865810909 0.949771009965
0.018138485909 2.19588457082 1.31840445337 0.952021446187
0.019666982782 2.20678740874 1.31900463825 0.954828928305
0.021207943323 2.21798254731 1.32012014116 0.957895261764
0.022760168945 2.22933037532 1.32168335798 0.961099982656
0.024322728664 2.24042468159 1.32347763692 0.964237539045
0.025894923882 2.25132071716 1.32553727745 0.967310158949
0.027476259011 2.26164864987 1.32758924949 0.970110509479
0.029066372221 2.27107586572 1.32930541195 0.972393628588
0.030665009803 2.27963220098 1.33073746519 0.974225768446
0.032271972235 2.28690176887 1.33123959569 0.975132046856
0.033887165479 2.29261032887 1.33037224855 0.974821773629
0.035510607379 2.29659503952 1.32786094165 0.973125603314
0.037142386858 2.29870216966 1.32351649492 0.969936636812
0.038782612671 2.29923446536 1.31761333356 0.965494402833
0.040431340576 2.2986248969 1.31066720898 0.960201640845
0.042085020274 2.29731157369 1.30323698954 0.954497785645
0.043739371022 2.29560590569 1.29564234256 0.948648083723
0.045394519803 2.29374528672 1.28808508888 0.942818786801
0.047050593473 2.29177023959 1.2805499665 0.93702405041
0.048707684072 2.2898121377 1.27309117041 0.931321301787
0.050365864484 2.28789737665 1.26573055978 0.925724726262
0.052025182963 2.28614010665 1.25854358436 0.920305185526
0.053685661416 2.28454600663 1.25153195742 0.915066815295
0.055347297449 2.28317783603 1.24474382744 0.910044955513
0.057010076398 2.2819945363 1.23813231186 0.905205950708
0.058673962008 2.28099007831 1.23169709079 0.900548717432
0.060338902414 2.28003945095 1.22537778155 0.89601128878
0.062004856994 2.27916913441 1.21916098352 0.891581603242
0.063671768638 2.27837522617 1.21306008185 0.887265582549
0.065339589986 2.27768867106 1.20709732481 0.883077158104
0.067008267191 2.27707921558 1.2012515413 0.878996645525
0.068677749222 2.27655677795 1.19552322891 0.875020035271
0.070347982444 2.27609407503 1.18989011967 0.871128862486
0.072018909039 2.27573352268 1.18436034695 0.86732857262
0.073690477174 2.27541530251 1.17891169806 0.863596286327
0.075362631635 2.27516328936 1.17355233727 0.859937620027
0.077035324815 2.27495689326 1.16827915357 0.856346334372
0.078708511267 2.27480199415 1.16308483881 0.852815374853
0.080382150868 2.27470649664 1.15797551368 0.849350337153
0.082056206496 2.27469637185 1.15296336057 0.845959801628
0.083730639303 2.27473293549 1.14802641975 0.842626494897
0.08540541584 2.27482743366 1.14318215046 0.839362044983
0.08708050492 2.2750069286 1.13844735225 0.836181272176
0.088755872861 2.27525796108 1.13381319763 0.833076898113
0.090431494622 2.27557355261 1.12927194337 0.830043152041
0.092107345078 2.2759487246 1.12483202357 0.827084847803
0.093783402215 2.2764236288 1.12050639053 0.824215827537
0.095459642356 2.27694669232 1.11628114278 0.821422159717
0.097136049751 2.27755896079 1.11216245293 0.818712285103
0.098812608606 2.27821261907 1.10814042116 0.816074218238
0.10048930227 2.27893358361 1.10421571486 0.813515017994
0.10216611969 2.2796990049 1.10038707453 0.811026286446
0.10384304573 2.28050358248 1.09664115601 0.808601621513
0.10552006926 2.28138335066 1.09299542996 0.806256468693
0.10719717831 2.28228068654 1.08943179913 0.803972234405
0.10887436167 2.28323260113 1.08594287835 0.801747169199
0.11055160974 2.28422519483 1.08254421341 0.799592103093
0.11222890882 2.28532627991 1.07923652547 0.79751330684
0.11390623305 2.28641158037 1.07599698461 0.795484814768
0.11558358162 2.2875325995 1.07283147773 0.793509792833
0.11726092532 2.28869569643 1.06973722078 0.79159165823
0.1189382332 2.28988785491 1.0667167752 0.789728452283
0.1206155313 2.29110530253 1.06374683471 0.787906609767
0.12229279269 2.29237965592 1.06086437528 0.786152511825
0.12397000916 2.29366914284 1.05803796187 0.784438794939
0.12564717492 2.29500804151 1.05527132661 0.782775525517
0.12732427601 2.29636964952 1.05256778622 0.781156451554
0.12900130661 2.29775618931 1.04992537926 0.779585546787
0.13067825927 2.29917004967 1.04733575548 0.778053856458
0.13235512321 2.30061391253 1.04480444296 0.776567299432
0.13403189422 2.30207157853 1.04232879972 0.775121033185
0.13570856067 2.30356874373 1.03990283093 0.773714458602
0.13738511751 2.30506256312 1.03751909473 0.772337940951
0.13906155388 2.30657941625 1.03518817211 0.770997970937
0.14073786388 2.30811997291 1.0328850465 0.769689585962
0.14241404076 2.30969019828 1.03063777566 0.768418085775
0.14409007526 2.31123774801 1.02842254785 0.767167944123
0.14576596144 2.31280774832 1.02624948257 0.765950277975
0.14744168835 2.31438552903 1.02411504978 0.764760617787
0.14911725417 2.3159631871 1.02201434021 0.763594789981
0.15079265042 2.31754860755 1.01994717024 0.762453605485
0.15246786944 2.31913037491 1.01791270901 0.761334619606
0.15414290687 2.32072516414 1.01591316416 0.760243505898
0.15581775836 2.3223034921 1.01393368644 0.759165103079
0.15749241537 2.32389726977 1.0119884346 0.758113008283
0.15916687271 2.3254809332 1.0100659042 0.757077123817
0.16084112597 2.32707803832 1.00817354448 0.756064515041
0.16251516911 2.32865738326 1.00629833641 0.755063281653
0.16418899771 2.33023050541 1.00444651415 0.754078820584
0.16586260486 2.33182055604 1.00262197081 0.753115752503
0.16753598781 2.33339052702 1.00081728549 0.752165349187
0.16920914131 2.33497610644 0.999041317198 0.751236854487
0.1708820584 2.33654769482 0.997281060609 0.750318679942
0.17255473295 2.33813128709 0.995543921392 0.749418373427
0.17422716389 2.33970736747 0.993826292691 0.748531809631
0.17589934844 2.341281273 0.992126491824 0.74765853023
0.17757128469 2.34285133683 0.990444761322 0.746798606883
0.17924296986 2.3444153115 0.988780241662 0.745951276961
0.18091440285 2.3459753232 0.987132758822 0.745116321443
0.18258558258 2.34752523374 0.985499073686 0.744291038091
0.1842565071 2.34907661596 0.983884558753 0.74348049764
0.18592717364 2.35061432187 0.982281169286 0.742678306217
0.18759758108 2.35215448227 0.980696685531 0.741890522403
0.18926772748 2.35367122185 0.979117112213 0.74110561114
0.19093761004 2.35519587411 0.977560129642 0.740338347132
0.1926072302 2.35670489585 0.976011743925 0.739577398433
0.19427658089 2.35821184146 0.974479291385 0.738828910198
0.19594566357 2.35970273317 0.972953929876 0.738085624091
0.19761447797 2.36118684252 0.971440360452 0.737351338679
0.19928301785 2.36266467788 0.969940132091 0.73662730084
0.2009512821 2.36413086419 0.968449613735 0.735911001582
0.2026192653 2.3655891402 0.966970436224 0.735203234437
0.20428696807 2.36701810804 0.965492485114 0.734495296566
0.20595438668 2.36847969634 0.964045471118 0.733813032016
0.20762152174 2.36989242921 0.962587325436 0.733120536455
0.20928837039 2.3713115051 0.961149178253 0.732443724902
0.21095492892 2.37271578021 0.95971682952 0.731770907614
0.2126211962 2.3741134875 0.95829360412 0.731105236598
0.21428717108 2.37550051156 0.956877874149 0.730445727702
0.2159528507 2.37687852301 0.955472142953 0.72979382924
0.21761823133 2.37824389197 0.95407202069 0.729145701299
0.21928331269 2.37960618032 0.952685041149 0.728507551057
0.22094809189 2.3809458757 0.951296180474 0.727867521813
0.22261256693 2.3822788092 0.949917508708 0.727235133935
0.22427673838 2.38360721255 0.948549511753 0.726610764731
0.22594059989 2.38492486657 0.94718825211 0.725990563497
0.22760415116 2.38623151459 0.94583337669 0.725375026222
0.2292673919 2.3875272151 0.944484694087 0.724763778327
0.23093032183 2.38881831985 0.943144063836 0.724158846233
0.23259293542 2.39010232626 0.941810686086 0.72355923392
0.23425522889 2.39137225934 0.940480089462 0.722961292086
0.2359172037 2.39263436471 0.93915777705 0.722369083605
0.23757885867 2.39388693182 0.937839555092 0.721779632638
0.23924018912 2.39513221836 0.936528737871 0.721195251219
0.24090119915 2.39636667101 0.935221102364 0.720612620959
0.24256188494 2.39759370989 0.933921718929 0.720035908018
0.24422224531 2.39881184573 0.93262892368 0.719463547966
0.24588228172 2.40002318817 0.931342465513 0.718895552989
0.24754198772 2.40122278193 0.930059565313 0.718329723748
0.24920136563 2.40241356588 0.928782098061 0.717767387896
0.25086041076 2.40359894426 0.927509937362 0.717208897124
0.25251912455 2.40477237191 0.926242568147 0.716653909644
0.25417750317 2.40593213836 0.924975953133 0.716099260841
0.2558355419 2.40709161176 0.923719430351 0.715551306579
0.25749324042 2.40823905222 0.922464152315 0.715003841683
0.25915059665 2.40937976692 0.921215365543 0.714460647138
0.26080761205 2.41051185369 0.919969936562 0.713919470734
0.26246429161 2.41162420902 0.918723482927 0.713376249761
0.26412063325 2.41274704712 0.917490296657 0.71284342653
0.26577663488 2.41385681776 0.916257582735 0.71231006306
0.26743229529 2.41495540746 0.915027124006 0.711777517891
0.26908761328 2.41604783839 0.91380330737 0.711249201005
0.27074259209 2.41713266169 0.912582007992 0.710722152117
0.27239722872 2.41821819035 0.911367964694 0.710200406618
0.27405152198 2.41928203127 0.91014992187 0.709674254901
0.27570547153 2.42035021596 0.908940620319 0.709154648615
0.27735907527 2.42141016018 0.907733008581 0.708635909485
0.27901233466 2.4224663873 0.906530475068 0.708120640131
0.28066524581 2.42351306153 0.905329253122 0.707605560185
0.28231781197 2.424553707 0.904132086432 0.707092968981
0.28397003371 2.42558886167 0.902937982229 0.706582224872
0.28562190981 2.42661727005 0.901746978734 0.706073101879
0.28727343994 2.42764037274 0.900559199498 0.705565784518
0.28892462469 2.42866052465 0.899376425843 0.705061556745
0.29057546642 2.42967567492 0.898196935763 0.704559027925
0.2922259612 2.43068128594 0.897019160759 0.704056854357
0.29387611322 2.43168137111 0.895843710177 0.703555791323
0.29552592035 2.43267782652 0.894672617532 0.703057495021
0.29717538225 2.43366887346 0.893504519845 0.702560697247
0.29882450221 2.43464991964 0.892339337093 0.702065112097
0.3004732772 2.4356258526 0.891177479249 0.701571254025
0.30212170959 2.43660399369 0.890022004468 0.701082112226
0.30376979635 2.43756364868 0.888862499625 0.70058872314
0.30541753986 2.43852445343 0.88770890048 0.700099490267
0.30706490068 2.43947857921 0.886558808677 0.699612015755
0.30871142561 2.44042607962 0.885411206661 0.699125748862
0.31035698529 2.44136995744 0.88426766605 0.698641723246
0.31200158315 2.44230554934 0.883125107755 0.698157823936
0.31364522354 2.44323826341 0.881989354422 0.697678013073
0.3152879108 2.4441639841 0.880852636681 0.697197204501
0.31692964653 2.44508419142 0.879720749636 0.696719164068
0.31857043324 2.44600404646 0.878591736785 0.696242518174
0.3202102771 2.44691635714 0.877465731932 0.695767495817
0.32184917878 2.44782324182 0.876343296136 0.695294242384
0.32348713989 2.44872698585 0.875223109209 0.694822343333
0.32512416474 2.44961723613 0.874099720568 0.694347232555
0.32676025584 2.45051551966 0.872986407099 0.693879484619
0.32839541569 2.4514037701 0.871875510429 0.693412422936
0.33002964679 2.45229164616 0.870767779738 0.692947455678
0.33166295072 2.45317663137 0.869663366625 0.692484564454
0.33329533271 2.45405639466 0.868563228037 0.692023896661
0.33492679525 2.45492917912 0.867463825275 0.691563079337
0.33655734449 2.45579914448 0.866367598668 0.691104221813
0.33818698016 2.45666299647 0.865274420275 0.690646507398
0.33981570201 2.45752175487 0.86418389852 0.690190153441
0.34144351435 2.45837572247 0.863096645175 0.689735347679
0.3430704224 2.45923325664 0.862012928229 0.689283417674
0.34469642955 2.46007632314 0.86092981016 0.688830636427
0.34632153646 2.46092106291 0.859850464897 0.688380414106
0.34794574833 2.4617637676 0.858773692824 0.687931939769
0.34956906673 2.46260071941 0.857700195013 0.687485157649
0.35119149595 2.46343473197 0.856629262944 0.687039884248
0.35281303755 2.46426373146 0.855560901237 0.686595920901
0.35443369398 2.46509075438 0.854495736278 0.686153740812
0.35605347139 2.46592302243 0.853438695579 0.685716677396
0.35767237222 2.46675817882 0.852388954982 0.685283837284
0.35929040169 2.46760075703 0.851348453173 0.68485670799
0.36090756317 2.46844183839 0.850312353593 0.684431891139
0.36252386461 2.46928234952 0.849280262386 0.684008905726
0.36413930846 2.47012062443 0.848253373416 0.683588518078
0.36575390269 2.47095516023 0.847231240525 0.683169778677
0.36736765339 2.47179608184 0.846217522087 0.682756253819
0.3689805676 2.4726137903 0.845198873341 0.682336849163
0.37059265144 2.47343655489 0.844186398397 0.681922658719
0.37220391009 2.47425337694 0.843178011358 0.681509656804
0.37381435149 2.47507100543 0.842174041329 0.681099575948
0.37542398175 2.4758822634 0.841171674202 0.680689863371
0.37703280605 2.47668407682 0.840169760529 0.68027984755
0.37864082865 2.47748685656 0.839173503871 0.679873208708
0.3802480538 2.47828570062 0.838179712544 0.679467601046
0.38185448854 2.4790758138 0.837187333682 0.679062447602
0.38346013434 2.47986148596 0.836198157691 0.678658720084
0.38506499638 2.48064323559 0.835212992792 0.678257178968
0.38666907893 2.48141950953 0.834229405321 0.677856189724
0.3882723853 2.48219019755 0.833248640256 0.677456569026
0.3898749216 2.48295633902 0.832271016841 0.677058633566
0.39147669301 2.48371832554 0.831296166691 0.676662213484
0.39307770284 2.48447324053 0.830322916604 0.676266140575
0.39467795536 2.48522458616 0.82935274602 0.675871885016
0.39627745296 2.48597153429 0.828385093221 0.675478891423
0.39787619896 2.48671395371 0.827419710719 0.67508723722
0.39947419299 2.48745224765 0.826456226821 0.674696629651
0.40107144115 2.48818427976 0.825494615876 0.67430666091
0.4026679449 2.48891516722 0.824537635699 0.673919750906
0.40426370758 2.48963819987 0.823580042857 0.673531894573
0.40585873251 2.49035775941 0.822625912964 0.67314615365
0.40745302116 2.49107497171 0.82167484349 0.672762257424
0.40904657684 2.49178608682 0.820724959027 0.672378702818
0.41063940289 2.49249313315 0.81977772486 0.671996679749
0.41223150077 2.49319555362 0.818832937302 0.671616048081
0.4138228738 2.49389302373 0.817890207319 0.671236541707
0.41541352252 2.49458689251 0.81694984893 0.670858268001
0.41700345026 2.49527790879 0.816011540595 0.670481540879
0.41859265847 2.49596024273 0.815074939675 0.67010514921
0.42018115142 2.49664004094 0.814141346101 0.669730535009
0.4217689287 2.49731449587 0.813208887632 0.669356414376
0.42335599457 2.49798622588 0.812279818592 0.668984315519
0.42494234863 2.49865183318 0.811352128006 0.668612629109
0.42652799421 2.49931406126 0.810426411782 0.668242150117
0.42811293182 2.49997247456 0.809502530755 0.667872777556
0.42969716668 2.50062839289 0.808581229221 0.667505037334
0.43128069837 2.50127666656 0.807659826836 0.667136692972
0.4328635274 2.50192849897 0.806743503097 0.666772302987
0.43444565713 2.50257252896 0.805828370615 0.666408093779
0.436027089 2.50321253695 0.804914923683 0.666044779715
0.43760782541 2.50385047841 0.804003271117 0.665682583491
0.43918786782 2.50448586673 0.80309413281 0.665321852981
0.44076721581 2.50511261846 0.802187969405 0.664962730808
0.44234587365 2.50574475269 0.801285700646 0.664606313855
0.44392384187 2.50635940005 0.800379419011 0.66424596536
0.44550112192 2.50697607346 0.799478418661 0.663889390864
0.44707771621 2.50759305784 0.798580676434 0.66353515711
0.44865362524 2.50820324239 0.797684511834 0.663181357897
0.45022885236 2.50881043684 0.796790641054 0.662828940479
0.4518033962 2.50941581328 0.79589990276 0.662478408736
0.45337725916 2.51001302547 0.795009033472 0.662127215163
0.45495044553 2.51060890735 0.794121284188 0.661778012468
0.45652295488 2.51119777501 0.793234505748 0.661428981305
0.45809478772 2.51179037409 0.792352819522 0.661083668382
0.45966594361 2.51237403939 0.791470089646 0.660736803481
0.46123642686 2.51295597477 0.79059076448 0.66039236454
0.46280623607 2.51353509589 0.789713795371 0.660049367131
0.46437537461 2.51411000229 0.788837995613 0.659706880523
0.46594384298 2.5146818188 0.787964793729 0.65936597284
0.46751164263 2.51525094951 0.787093641439 0.659026180659
0.46907877409 2.51581648364 0.786224570964 0.658687438946
0.4706452388 2.51637947492 0.785357380102 0.658349708146
0.47221103918 2.51693733969 0.784491311981 0.658012430853
0.47377617479 2.5174961188 0.783628925466 0.657677379427
0.47534064612 2.51804937097 0.782767464784 0.657342652505
0.4769044575 2.51860082551 0.781908369782 0.657009381661
0.47846760657 2.5191481848 0.781051360086 0.656677114494
0.4800300967 2.51969296029 0.78019649239 0.65634611237
0.4815919284 2.52023629866 0.779343843768 0.656016679615
0.48315310312 2.52077326383 0.778492343896 0.655687057244
0.48471362138 2.52130948176 0.777643397194 0.655359336188
0.48627348654 2.52184304099 0.776796718418 0.655032951171
0.48783269719 2.52237419219 0.775951683307 0.65470739328
0.48939125576 2.52290191412 0.77510929871 0.654383455015
0.49094916467 2.52342608896 0.774268452804 0.65406010312
0.49250642344 2.52394852566 0.773430029922 0.653738168052
0.49406303452 2.52446705302 0.772593216377 0.653416977676
0.49561899937 2.52498300966 0.771758688876 0.653097082564
0.49717431847 2.52549816571 0.770926863562 0.65277879834
0.49872899427 2.52600822557 0.770096016037 0.65246067593
0.50028302629 2.52651651196 0.769268002932 0.652144262039
0.50183641794 2.52702155235 0.768441860071 0.651828733933
0.5033891697 2.52752258536 0.767617243188 0.651513874588
0.50494128208 2.52802336037 0.766796000343 0.651201134696
0.50649275751 2.52851901036 0.765976063461 0.650888645645
0.50804359649 2.52901272167 0.765158617782 0.650577588311
0.50959380048 2.52950133037 0.764342435707 0.650266749179
0.51114337095 2.52998855991 0.763529117103 0.649957610689
0.51269230937 2.53047300903 0.762717722838 0.649649464877
0.51424061623 2.53095562153 0.761908275026 0.649342365776
0.51578829398 2.53143399239 0.761100574682 0.649035959295
0.51733534214 2.53191137966 0.760295646236 0.648731154929
0.51888176411 2.53238582679 0.759492675803 0.648427287459
0.52042755846 2.53285852727 0.75869089035 0.648124492213
0.52197272762 2.53332831313 0.757891298063 0.647822634083
0.52351727307 2.53379561092 0.757093463047 0.647521687063
0.52506119627 2.53426047172 0.756297698722 0.647222166745
0.52660449771 2.53472930634 0.755507148769 0.646926116157
0.52814717889 2.53518331174 0.754711879432 0.646625654287
0.5296892393 2.53564148016 0.753921595564 0.646328839362
0.53123068531 2.53609874145 0.75313395677 0.646033386044
0.53277150762 2.53655313984 0.752348049714 0.645738846502
0.53431171752 2.53700503439 0.751564266683 0.645445265117
0.53585131254 2.53745451274 0.750782679233 0.645152734693
0.53739029417 2.53790263126 0.750003063279 0.644861495012
0.53892865995 2.53834852512 0.749225234718 0.644571177784
0.54046642021 2.53879163451 0.748449884166 0.644281934055
0.54200356756 2.53923061343 0.747675899104 0.643992957867
0.54354010644 2.53966716887 0.746904412349 0.643705199185
0.54507603635 2.5401033741 0.746135643857 0.643419306607
0.54661135976 2.54053594434 0.745368300996 0.643133964081
0.54814607618 2.54096648711 0.744603436859 0.642849960787
0.54968018807 2.54139614245 0.743840725606 0.642567017197
0.55121369493 2.54182258698 0.743079906471 0.642285111162
0.55274659726 2.54224693411 0.742320841136 0.642004095587
0.55427889356 2.54266920423 0.741563504106 0.641723867222
0.55581059028 2.54308880523 0.740808425554 0.641444890193
0.55734168393 2.54350633232 0.740054826129 0.641166410225
0.55887217799 2.54392264796 0.73930393473 0.640889328075
0.56040207493 2.5443379543 0.738555417621 0.640613740686
0.56193137725 2.54474969153 0.737808175038 0.640338517185
0.56346008343 2.54516024887 0.737063383487 0.640064726415
0.56498819697 2.54556735591 0.736319284521 0.639790948653
0.56651571834 2.54597274385 0.735577318418 0.639518268808
0.56804264803 2.54637870799 0.734838357383 0.639247542239
0.56956898955 2.5467817017 0.734100842383 0.638977419259
0.57109474337 2.54718318137 0.733364868033 0.638708086332
0.572619911 2.54758269967 0.73263107049 0.638439809071
0.57414449291 2.54797967167 0.731898543607 0.638171876625
0.5756684906 2.54837363354 0.731167851498 0.637904754525
0.57719190457 2.54876790219 0.730440051442 0.637639495038
0.57871473429 2.54916019239 0.72971400798 0.637375095181
0.58023698428 2.54955246004 0.728990198154 0.637112039905
0.58175865201 2.54994093172 0.728267287815 0.636849071048
0.58327974301 2.55032858218 0.727546935553 0.63658751801
0.58480025272 2.55071422475 0.726828513591 0.636326819363
0.58632018669 2.55109796784 0.726111939071 0.636067030921
0.58783954236 2.55147984403 0.725397269017 0.635808234639
0.58935832327 2.55186021237 0.724684691374 0.635550480958
0.59087652889 2.55223948384 0.723973994436 0.635293793031
0.5923941587 2.55261711211 0.72326489612 0.635037914774
0.5939112152 2.55299366828 0.722558017383 0.634783202447
0.59542769891 2.55336870744 0.721852991854 0.634529535936
0.59694361029 2.55374175938 0.721149060823 0.634276402812
0.59845894883 2.55411535944 0.720447424905 0.634024767955
0.59997371807 2.55448709719 0.719747551508 0.633773946446
0.60148791646 2.55485776214 0.719050024268 0.633524412709
0.60300154857 2.55522680751 0.718354188034 0.633275722232
0.60451460774 2.55559415875 0.717659915617 0.633027836942
0.60602709855 2.55596001016 0.716967333364 0.632780770552
0.60753902558 2.55632415526 0.716276971103 0.632534758303
0.6090503842 2.55668657853 0.715588590242 0.632289704852
0.61056117899 2.55704929836 0.71490209214 0.632045773918
0.6120714084 2.55741000676 0.714217120502 0.631802529752
0.613581076 2.5577693994 0.713535027541 0.631561052462
0.61509018021 2.55812582316 0.712854068846 0.631319797284
0.61659872359 2.55848218185 0.712174548034 0.631079178805
0.61810670766 2.55883748444 0.711497047172 0.630839695015
0.61961413084 2.55919110866 0.710821296951 0.630601004424
0.62112099465 2.55954343657 0.710147385639 0.630363276234
0.62262730165 2.55989461165 0.709475288831 0.630126519692
0.62413305234 2.56024461124 0.708805355911 0.629890816822
0.62563824616 2.56059355497 0.708137336168 0.629656160598
0.62714288257 2.56094121704 0.707470420608 0.629422077576
0.62864696517 2.56128754217 0.706805392335 0.629188955558
0.63015049341 2.56163387809 0.70614224706 0.628956952267
0.63165346778 2.56197950753 0.705480701176 0.628725887786
0.6331558919 2.5623235776 0.704821294945 0.628495716576
0.63465776208 2.56266538974 0.704163698053 0.628266416048
0.63615908299 2.56300404961 0.703506602584 0.628036854165
0.63765985408 2.56334420439 0.702852710099 0.627809469959
0.63916007583 2.56368352662 0.702199811967 0.62758250132
0.64065974873 2.56402272878 0.701549178837 0.627356798181
0.64215887538 2.56436008322 0.700900495409 0.627132108019
0.64365745521 2.56469623253 0.700253119323 0.626907945247
0.64515548976 2.56503169723 0.699607501162 0.626684727411
0.64665297743 2.56536591307 0.698963464186 0.626462245142
0.64814991976 2.56569970758 0.698321178517 0.626240725384
0.64964631828 2.56603239174 0.697680553823 0.626020018052
0.65114217455 2.56636444802 0.697042118169 0.625800554114
0.65263748694 2.56669553651 0.696405053874 0.625581680394
0.65413225807 2.56702401407 0.695769244638 0.625363210878
0.65562648947 2.56735193033 0.695134924697 0.625145531577
0.65712017953 2.56768275381 0.694503934388 0.624930150836
0.65861332979 2.56800949948 0.693873308344 0.624714483129
0.66010594181 2.56833650061 0.693244426123 0.62449981864
0.6615980182 2.56866204385 0.692617312438 0.624285915311
0.66308955521 2.56898679852 0.691991941884 0.624072956319
0.66458056077 2.56931296371 0.69136918903 0.623860961326
0.66607102473 2.56963491945 0.690746491042 0.623648950541
0.66756095504 2.56995635685 0.690125553445 0.623438910628
0.6690503522 2.57027847692 0.689507040094 0.623229966523
0.6705392199 2.57059942134 0.688889708345 0.623021150645
0.6720275597 2.57091970609 0.688274191473 0.62281327935
0.67351536461 2.57123858973 0.687660307214 0.622606099397
0.67500264369 2.57155673694 0.687048159354 0.622399901722
0.67648939316 2.57187412619 0.686437529594 0.622194410198
0.67797561564 2.57219056617 0.685828259467 0.62198963256
0.67946131164 2.57250830607 0.685220900854 0.621785974972
0.68094648166 2.57282279367 0.684615077353 0.621582834036
0.68243112618 2.57313752065 0.684010833897 0.621380684112
0.68391524893 2.57345051438 0.68340781461 0.62117899026
0.68539884611 2.57376404177 0.682806765934 0.620978400782
0.68688192036 2.57407680493 0.682207568519 0.620778772575
0.68836447327 2.57438819195 0.681609404507 0.620579557046
0.68984650424 2.57469972411 0.681013482726 0.620381519561
0.69132801486 2.57500935382 0.680418543748 0.620183740728
0.69280900672 2.57531914214 0.679825409513 0.619987016743
0.69428947814 2.57562629148 0.67923367699 0.619790823252
0.69576943287 2.57593581047 0.678643519832 0.619595780898
0.69724886924 2.57624344977 0.678055299252 0.619401537618
0.69872778994 2.57655045721 0.677468218665 0.61920784618
0.70020619436 2.5768572921 0.676882675928 0.619015007592
0.70168408409 2.5771631335 0.676298448859 0.618822817569
0.70316145856 2.57746818233 0.675715779401 0.61863150034
0.70463831934 2.57777264812 0.675134594546 0.618440852686
0.70611466695 2.57807774643 0.674555163022 0.618251263605
0.70759050187 2.57838084215 0.673977189278 0.618062161811
0.70906582572 2.57868352054 0.673400780564 0.617873931462
0.71054063899 2.57898514051 0.67282589472 0.617686392698
0.71201494218 2.57928612875 0.672252265194 0.617499532717
0.7134887347 2.57958779611 0.671680761795 0.61731381526
0.71496202035 2.57988819081 0.67111062004 0.617128627371
0.71643479853 2.58018768632 0.670541710846 0.616944069652
0.71790707197 2.58048630807 0.669973988468 0.616759959656
0.71937883674 2.58078661118 0.669408630094 0.616577505724
0.72085009666 2.58108480714 0.668843907878 0.616395018578
0.72232085112 2.58138212448 0.668280728043 0.616213281777
0.72379110398 2.58167959665 0.667719140911 0.616032337737
0.7252608535 2.58198134338 0.667160781688 0.615853727849
0.72673010131 2.5822729246 0.666600524066 0.615672715691
0.72819884791 2.58256875263 0.666043433021 0.615493974148
0.72966709492 2.58286422752 0.665487883076 0.615316101334
0.73113484175 2.58315930439 0.664933725831 0.615138915335
0.73260208888 2.58345424702 0.66438074782 0.614962335369
0.73406883908 2.58374826121 0.663829053394 0.614786353158
0.7355350906 2.58404227787 0.663278832858 0.614611170433
0.7370008462 2.58433571 0.662729902636 0.614436616761
0.73846610752 2.58462814297 0.662182266168 0.614262729362
0.73993087507 2.58492226634 0.661636906077 0.614090188618
0.74139514709 2.58521394106 0.661092326182 0.613917746261
0.74285892749 2.58550572555 0.660549111282 0.613745991997
0.74432221678 2.58579815334 0.660007823718 0.613575331534
0.74578501207 2.58608933111 0.659467588534 0.613404998147
0.74724731728 2.58637947494 0.658928724895 0.613235238353
0.74870913292 2.58667002243 0.65839144438 0.613066344776
0.75017045837 2.58696001412 0.657855681449 0.612898252384
0.75163129527 2.58724815875 0.657320952919 0.612730533164
0.75309164414 2.58753951595 0.656788218735 0.612564125017
0.75455150664 2.58782810022 0.656255963547 0.612397695632
0.75601088328 2.58811814296 0.655725601418 0.612232447569
0.75746977457 2.58840684921 0.655196312963 0.612067706371
0.75892818218 2.58869641171 0.654668243176 0.611903574709
0.76038610549 2.58898450086 0.654141374546 0.611739901737
0.76184354614 2.58927317105 0.653616139452 0.61157716587
0.76330050121 2.58956101563 0.653092297033 0.61141496546
0.76475697583 2.58984832432 0.652569431275 0.611253363866
0.76621296935 2.59013626869 0.652048256327 0.611092681524
0.7676684823 2.59042365311 0.651528204057 0.61093249544
0.76912351867 2.5907097104 0.651009739268 0.610773040955
0.77057807551 2.59099600083 0.650492377617 0.610614143842
0.77203215217 2.59128186025 0.649976581893 0.610456072102
0.77348575265 2.59156844381 0.649461623947 0.610298426397
0.77493887749 2.59185477505 0.648948076101 0.610141554812
0.77639152371 2.59213920741 0.648435083084 0.609984642768
0.77784369416 2.59242630231 0.647924475903 0.609829394143
0.77929539053 2.59271242286 0.647414825143 0.609674509907
0.78074661335 2.59299852496 0.646906556414 0.609520307973
0.78219736081 2.59328450423 0.646399456548 0.609366631031
0.78364763693 2.5935693432 0.645893458591 0.609213441202
0.78509743991 2.59385415385 0.645388685207 0.609060794706
0.78654677144 2.59413883767 0.644885254109 0.608908849031
0.78799563205 2.59442367256 0.644382916185 0.608757463156
0.78944402226 2.59470825984 0.6438820298 0.608606779748
0.79089194261 2.59499272043 0.643382261856 0.608456587216
0.7923393948 2.59527695689 0.642883822785 0.608307118124
0.79378637699 2.59556095077 0.642386871598 0.608158365727
0.79523289209 2.5958442489 0.641890983134 0.608010128232
0.79667894181 2.59612765775 0.641395900863 0.607862264544
0.79812452312 2.59641087245 0.640902760175 0.607715344714
0.79956963773 2.59669555645 0.640411400161 0.607569671095
0.80101428738 2.59697900765 0.639920333193 0.607423795457
0.8024584702 2.59726197254 0.639430174547 0.607278378274
0.80390219031 2.59754447142 0.638940965763 0.607133336384
0.80534544586 2.59782797074 0.638453424277 0.606989244497
0.80678823618 2.59811116004 0.637967263168 0.606845873451
0.8082305642 2.59839432399 0.637482114995 0.606703085299
0.80967243046 2.59867716224 0.636997956778 0.606560751663
0.81111383669 2.59896120071 0.636515504196 0.606419461883
0.81255478103 2.59924402967 0.636033869108 0.606278480012
0.81399526642 2.59952700101 0.635553439045 0.606138141062
0.81543529099 2.59981045569 0.63507429164 0.605998551978
0.81687485769 2.60009307023 0.634596037316 0.605859279522
0.81831396464 2.60037606753 0.634119003658 0.605720689189