# Forces         
# CofR           : (0.0000000000e+00 0.0000000000e+00 0.0000000000e+00)
# Time           forces(pressure viscous porous) moment(pressure viscous porous)
2.0104501608e-01	((4.9370356735e+00 3.0286201191e+01 1.4923409822e-18) (1.6414930949e-01 -2.6027741372e-02 -3.4860699042e-21) (0.0000000000e+00 0.0000000000e+00 0.0000000000e+00)) ((-1.5143100596e+00 2.4685178367e-01 9.9570567768e+00) (1.3013870686e-03 8.2074654747e-03 -5.7159680264e-02) (0.0000000000e+00 0.0000000000e+00 0.0000000000e+00))
2.0305466238e-01	((4.9370585387e+00 3.0289873746e+01 1.4925591814e-18) (1.6416180946e-01 -2.6030300286e-02 -3.4866988628e-21) (0.0000000000e+00 0.0000000000e+00 0.0000000000e+00)) ((-1.5144936873e+00 2.4685292694e-01 9.9580933101e+00) (1.3015150143e-03 8.2080904731e-03 -5.7164343510e-02) (0.0000000000e+00 0.0000000000e+00 0.0000000000e+00))
2.0506403836e-01	((4.9370359156e+00 3.0293476465e+01 1.4927554551e-18) (1.6417413248e-01 -2.6032844421e-02 -3.4861350204e-21) (0.0000000000e+00 0.0000000000e+00 0.0000000000e+00)) ((-1.5146738233e+00 2.4685179578e-01 9.9590769174e+00) (1.3016422211e-03 8.2087066239e-03 -5.7168967022e-02) (0.0000000000e+00 0.0000000000e+00 0.0000000000e+00))
2.0707283992e-01	((4.9370383239e+00 3.0297114445e+01 1.4929598882e-18) (1.6418619452e-01 -2.6035245974e-02 -3.4867381030e-21) (0.0000000000e+00 0.0000000000e+00 0.0000000000e+00)) ((-1.5148557223e+00 2.4685191619e-01 9.9600875049e+00) (1.3017622987e-03 8.2093097259e-03 -5.7173460586e-02) (0.0000000000e+00 0.0000000000e+00 0.0000000000e+00))
2.0908164148e-01	((4.9370228861e+00 3.0300645250e+01 1.4931706937e-18) (1.6419803854e-01 -2.6037563710e-02 -3.4873369560e-21) (0.0000000000e+00 0.0000000000e+00 0.0000000000e+00)) ((-1.5150322625e+00 2.4685114430e-01 9.9610633192e+00) (1.3018781855e-03 8.2099019270e-03 -5.7177862742e-02) (0.0000000000e+00 0.0000000000e+00 0.0000000000e+00))
2.1109044304e-01	((4.9369733185e+00 3.0304147683e+01 1.4933595141e-18) (1.6420966249e-01 -2.6039791056e-02 -3.4879076461e-21) (0.0000000000e+00 0.0000000000e+00 0.0000000000e+00)) ((-1.5152073841e+00 2.4684866592e-01 9.9620032662e+00) (1.3019895528e-03 8.2104831244e-03 -5.7182173105e-02) (0.0000000000e+00 0.0000000000e+00 0.0000000000e+00))
2.1309860514e-01	((4.9369353860e+00 3.0307630202e+01 1.4935596881e-18) (1.6422112991e-01 -2.6042008133e-02 -3.4872340168e-21) (0.0000000000e+00 0.0000000000e+00 0.0000000000e+00)) ((-1.5153815101e+00 2.4684676930e-01 9.9629488516e+00) (1.3021004066e-03 8.2110564954e-03 -5.7186454548e-02) (0.0000000000e+00 0.0000000000e+00 0.0000000000e+00))
2.1510649319e-01	((4.9368953345e+00 3.0311052109e+01 1.4937649087e-18) (1.6423233227e-01 -2.6044062762e-02 -3.4878128975e-21) (0.0000000000e+00 0.0000000000e+00 0.0000000000e+00)) ((-1.5155526055e+00 2.4684476673e-01 9.9638804036e+00) (1.3022031381e-03 8.2116166133e-03 -5.7190591778e-02) (0.0000000000e+00 0.0000000000e+00 0.0000000000e+00))
2.1711438124e-01	((4.9368299810e+00 3.0314448342e+01 1.4939469995e-18) (1.6424334889e-01 -2.6046037664e-02 -3.4883717110e-21) (0.0000000000e+00 0.0000000000e+00 0.0000000000e+00)) ((-1.5157224171e+00 2.4684149905e-01 9.9647823151e+00) (1.3023018832e-03 8.2121674445e-03 -5.7194647479e-02) (0.0000000000e+00 0.0000000000e+00 0.0000000000e+00))
2.1912226930e-01	((4.9367790550e+00 3.0317826306e+01 1.4941462873e-18) (1.6425417355e-01 -2.6047938553e-02 -3.4889409408e-21) (0.0000000000e+00 0.0000000000e+00 0.0000000000e+00)) ((-1.5158913153e+00 2.4683895275e-01 9.9656953307e+00) (1.3023969276e-03 8.2127086774e-03 -5.7198624989e-02) (0.0000000000e+00 0.0000000000e+00 0.0000000000e+00))
2.2112949408e-01	((4.9367155703e+00 3.0321166791e+01 1.4943391161e-18) (1.6426487550e-01 -2.6049846483e-02 -3.4881189184e-21) (0.0000000000e+00 0.0000000000e+00 0.0000000000e+00)) ((-1.5160583396e+00 2.4683577852e-01 9.9665873157e+00) (1.3024923242e-03 8.2132437748e-03 -5.7202586685e-02) (0.0000000000e+00 0.0000000000e+00 0.0000000000e+00))
2.2313637718e-01	((4.9366414816e+00 3.0324465482e+01 1.4945262259e-18) (1.6427533978e-01 -2.6051592653e-02 -3.4886696444e-21) (0.0000000000e+00 0.0000000000e+00 0.0000000000e+00)) ((-1.5162232741e+00 2.4683207408e-01 9.9674617249e+00) (1.3025796326e-03 8.2137669892e-03 -5.7206408902e-02) (0.0000000000e+00 0.0000000000e+00 0.0000000000e+00))
2.2514326028e-01	((4.9365615029e+00 3.0327727764e+01 1.4947103785e-18) (1.6428563934e-01 -2.6053268104e-02 -3.4892168319e-21) (0.0000000000e+00 0.0000000000e+00 0.0000000000e+00)) ((-1.5163863882e+00 2.4682807514e-01 9.9683228686e+00) (1.3026634052e-03 8.2142819672e-03 -5.7210158458e-02) (0.0000000000e+00 0.0000000000e+00 0.0000000000e+00))
2.2715014339e-01	((4.9364767317e+00 3.0330965114e+01 1.4948936291e-18) (1.6429577573e-01 -2.6054874244e-02 -3.4897599419e-21) (0.0000000000e+00 0.0000000000e+00 0.0000000000e+00)) ((-1.5165482557e+00 2.4682383658e-01 9.9691743077e+00) (1.3027437122e-03 8.2147887865e-03 -5.7213837012e-02) (0.0000000000e+00 0.0000000000e+00 0.0000000000e+00))
2.2915695842e-01	((4.9363832793e+00 3.0334043706e+01 1.4950698137e-18) (1.6430577689e-01 -2.6056434844e-02 -3.4887246081e-21) (0.0000000000e+00 0.0000000000e+00 0.0000000000e+00)) ((-1.5167021853e+00 2.4681916397e-01 9.9699848614e+00) (1.3028217422e-03 8.2152888443e-03 -5.7217462799e-02) (0.0000000000e+00 0.0000000000e+00 0.0000000000e+00))
2.3116270705e-01	((4.9362804870e+00 3.0337204821e+01 1.4952517225e-18) (1.6431560470e-01 -2.6057963906e-02 -3.4892593732e-21) (0.0000000000e+00 0.0000000000e+00 0.0000000000e+00)) ((-1.5168602410e+00 2.4681402435e-01 9.9708061011e+00) (1.3028981953e-03 8.2157802351e-03 -5.7221045204e-02) (0.0000000000e+00 0.0000000000e+00 0.0000000000e+00))
2.3316845568e-01	((4.9361574277e+00 3.0340351129e+01 1.4954196033e-18) (1.6432520895e-01 -2.6059370698e-02 -3.4897779848e-21) (0.0000000000e+00 0.0000000000e+00 0.0000000000e+00)) ((-1.5170175565e+00 2.4680787139e-01 9.9716061986e+00) (1.3029685349e-03 8.2162604476e-03 -5.7224514044e-02) (0.0000000000e+00 0.0000000000e+00 0.0000000000e+00))
2.3517420431e-01	((4.9360382165e+00 3.0343456964e+01 1.4955938854e-18) (1.6433459965e-01 -2.6060702724e-02 -3.4902992658e-21) (0.0000000000e+00 0.0000000000e+00 0.0000000000e+00)) ((-1.5171728482e+00 2.4680191083e-01 9.9724030349e+00) (1.3030351362e-03 8.2167299825e-03 -5.7227905749e-02) (0.0000000000e+00 0.0000000000e+00 0.0000000000e+00))
2.3717995294e-01	((4.9359147106e+00 3.0346494782e+01 1.4957738079e-18) (1.6434378479e-01 -2.6061948815e-02 -3.4908196950e-21) (0.0000000000e+00 0.0000000000e+00 0.0000000000e+00)) ((-1.5173247391e+00 2.4679573553e-01 9.9731825379e+00) (1.3030974408e-03 8.2171892395e-03 -5.7231215062e-02) (0.0000000000e+00 0.0000000000e+00 0.0000000000e+00))
2.3918570157e-01	((4.9357691296e+00 3.0349536291e+01 1.4959357201e-18) (1.6435278553e-01 -2.6063109578e-02 -3.4913206832e-21) (0.0000000000e+00 0.0000000000e+00 0.0000000000e+00)) ((-1.5174768145e+00 2.4678845648e-01 9.9739434708e+00) (1.3031554789e-03 8.2176392764e-03 -5.7234444630e-02) (0.0000000000e+00 0.0000000000e+00 0.0000000000e+00))
2.4119054153e-01	((4.9356502868e+00 3.0352612090e+01 1.4961268819e-18) (1.6436168462e-01 -2.6064302909e-02 -3.4899990143e-21) (0.0000000000e+00 0.0000000000e+00 0.0000000000e+00)) ((-1.5176306045e+00 2.4678251434e-01 9.9747372180e+00) (1.3032151454e-03 8.2180842310e-03 -5.7237679669e-02) (0.0000000000e+00 0.0000000000e+00 0.0000000000e+00))
2.4319495388e-01	((4.9355306499e+00 3.0355602835e+01 1.4963070378e-18) (1.6437032663e-01 -2.6065302370e-02 -3.4904987211e-21) (0.0000000000e+00 0.0000000000e+00 0.0000000000e+00)) ((-1.5177801417e+00 2.4677653249e-01 9.9755070422e+00) (1.3032651185e-03 8.2185163317e-03 -5.7240752524e-02) (0.0000000000e+00 0.0000000000e+00 0.0000000000e+00))
2.4519936624e-01	((4.9353682165e+00 3.0358525078e+01 1.4964717301e-18) (1.6437880317e-01 -2.6066223942e-02 -3.4909829258e-21) (0.0000000000e+00 0.0000000000e+00 0.0000000000e+00)) ((-1.5179262539e+00 2.4676841083e-01 9.9762311573e+00) (1.3033111971e-03 8.2189401585e-03 -5.7243748817e-02) (0.0000000000e+00 0.0000000000e+00 0.0000000000e+00))
2.4720377859e-01	((4.9351427672e+00 3.0361365962e+01 1.4966049786e-18) (1.6438712342e-01 -2.6067065517e-02 -3.4914317601e-21) (0.0000000000e+00 0.0000000000e+00 0.0000000000e+00)) ((-1.5180682981e+00 2.4675713836e-01 9.9768840711e+00) (1.3033532759e-03 8.2193561710e-03 -5.7246669860e-02) (0.0000000000e+00 0.0000000000e+00 0.0000000000e+00))
2.4920819095e-01	((4.9350188212e+00 3.0364244248e+01 1.4967841470e-18) (1.6439527878e-01 -2.6067834326e-02 -3.4919231256e-21) (0.0000000000e+00 0.0000000000e+00 0.0000000000e+00)) ((-1.5182122124e+00 2.4675094106e-01 9.9776264252e+00) (1.3033917163e-03 8.2197639391e-03 -5.7249517296e-02) (0.0000000000e+00 0.0000000000e+00 0.0000000000e+00))
2.5121260330e-01	((4.9348114463e+00 3.0367037815e+01 1.4969273099e-18) (1.6440328448e-01 -2.6068534150e-02 -3.4923752816e-21) (0.0000000000e+00 0.0000000000e+00 0.0000000000e+00)) ((-1.5183518908e+00 2.4674057231e-01 9.9782851211e+00) (1.3034267075e-03 8.2201642241e-03 -5.7252295587e-02) (0.0000000000e+00 0.0000000000e+00 0.0000000000e+00))
2.5321698136e-01	((4.9346477114e+00 3.0369863287e+01 1.4970945776e-18) (1.6441116757e-01 -2.6069191225e-02 -3.4904714907e-21) (0.0000000000e+00 0.0000000000e+00 0.0000000000e+00)) ((-1.5184931643e+00 2.4673238557e-01 9.9789797307e+00) (1.3034595613e-03 8.2205583786e-03 -5.7255023658e-02) (0.0000000000e+00 0.0000000000e+00 0.0000000000e+00))
2.5521967908e-01	((4.9344382640e+00 3.0372553764e+01 1.4972420065e-18) (1.6441896186e-01 -2.6069897264e-02 -3.4909240732e-21) (0.0000000000e+00 0.0000000000e+00 0.0000000000e+00)) ((-1.5186276882e+00 2.4672191320e-01 9.9796135769e+00) (1.3034948632e-03 8.2209480929e-03 -5.7257769284e-02) (0.0000000000e+00 0.0000000000e+00 0.0000000000e+00))
2.5722237679e-01	((4.9342614146e+00 3.0375321994e+01 1.4974019108e-18) (1.6442655207e-01 -2.6070423131e-02 -3.4913812563e-21) (0.0000000000e+00 0.0000000000e+00 0.0000000000e+00)) ((-1.5187660997e+00 2.4671307073e-01 9.9802872232e+00) (1.3035211565e-03 8.2213276033e-03 -5.7260363220e-02) (0.0000000000e+00 0.0000000000e+00 0.0000000000e+00))
2.5922507451e-01	((4.9340365817e+00 3.0377991693e+01 1.4975396570e-18) (1.6443401528e-01 -2.6070902057e-02 -3.4918128607e-21) (0.0000000000e+00 0.0000000000e+00 0.0000000000e+00)) ((-1.5188995847e+00 2.4670182908e-01 9.9808990581e+00) (1.3035451029e-03 8.2217007640e-03 -5.7262904024e-02) (0.0000000000e+00 0.0000000000e+00 0.0000000000e+00))
2.6122777222e-01	((4.9338353191e+00 3.0380619497e+01 1.4976909238e-18) (1.6444134784e-01 -2.6071334029e-02 -3.4922512038e-21) (0.0000000000e+00 0.0000000000e+00 0.0000000000e+00)) ((-1.5190309749e+00 2.4669176595e-01 9.9815216631e+00) (1.3035667014e-03 8.2220673921e-03 -5.7265389088e-02) (0.0000000000e+00 0.0000000000e+00 0.0000000000e+00))
2.6323046994e-01	((4.9336761497e+00 3.0383270977e+01 1.4978551843e-18) (1.6444856170e-01 -2.6071724368e-02 -3.4927041882e-21) (0.0000000000e+00 0.0000000000e+00 0.0000000000e+00)) ((-1.5191635488e+00 2.4668380749e-01 9.9821831489e+00) (1.3035862184e-03 8.2224280849e-03 -5.7267823341e-02) (0.0000000000e+00 0.0000000000e+00 0.0000000000e+00))
2.6523316765e-01	((4.9335026534e+00 3.0385992813e+01 1.4980193074e-18) (1.6445565912e-01 -2.6072075399e-02 -3.4931568526e-21) (0.0000000000e+00 0.0000000000e+00 0.0000000000e+00)) ((-1.5192996406e+00 2.4667513267e-01 9.9828453167e+00) (1.3036037699e-03 8.2227829561e-03 -5.7270207653e-02) (0.0000000000e+00 0.0000000000e+00 0.0000000000e+00))
2.6723586537e-01	((4.9333045281e+00 3.0388544482e+01 1.4981664599e-18) (1.6446264462e-01 -2.6072388567e-02 -3.4935871726e-21) (0.0000000000e+00 0.0000000000e+00 0.0000000000e+00)) ((-1.5194272241e+00 2.4666522641e-01 9.9834524714e+00) (1.3036194283e-03 8.2231322312e-03 -5.7272546039e-02) (0.0000000000e+00 0.0000000000e+00 0.0000000000e+00))
2.6923856309e-01	((4.9331397382e+00 3.0391172198e+01 1.4983354318e-18) (1.6446952420e-01 -2.6072666579e-02 -3.4940377511e-21) (0.0000000000e+00 0.0000000000e+00 0.0000000000e+00)) ((-1.5195586099e+00 2.4665698691e-01 9.9840988508e+00) (1.3036333289e-03 8.2234762100e-03 -5.7274839949e-02) (0.0000000000e+00 0.0000000000e+00 0.0000000000e+00))
2.7124126080e-01	((4.9328405701e+00 3.0393594231e+01 1.4984410515e-18) (1.6447630188e-01 -2.6072914539e-02 -3.4944211858e-21) (0.0000000000e+00 0.0000000000e+00 0.0000000000e+00)) ((-1.5196797116e+00 2.4664202850e-01 9.9845934976e+00) (1.3036457270e-03 8.2238150942e-03 -5.7277094112e-02) (0.0000000000e+00 0.0000000000e+00 0.0000000000e+00))
2.7324127708e-01	((4.9326604410e+00 3.0396176553e+01 1.4986082045e-18) (1.6448314172e-01 -2.6073375850e-02 -3.4910024290e-21) (0.0000000000e+00 0.0000000000e+00 0.0000000000e+00)) ((-1.5198088277e+00 2.4663302205e-01 9.9852175011e+00) (1.3036687925e-03 8.2241570862e-03 -5.7279488112e-02) (0.0000000000e+00 0.0000000000e+00 0.0000000000e+00))
2.7524118163e-01	((4.9324073911e+00 3.0398570703e+01 1.4987305779e-18) (1.6448972071e-01 -2.6073571925e-02 -3.4913958234e-21) (0.0000000000e+00 0.0000000000e+00 0.0000000000e+00)) ((-1.5199285352e+00 2.4662036956e-01 9.9857401283e+00) (1.3036785962e-03 8.2244860354e-03 -5.7281666380e-02) (0.0000000000e+00 0.0000000000e+00 0.0000000000e+00))
2.7724108619e-01	((4.9322666154e+00 3.0401082643e+01 1.4989077834e-18) (1.6449620602e-01 -2.6073745815e-02 -3.4918473887e-21) (0.0000000000e+00 0.0000000000e+00 0.0000000000e+00)) ((-1.5200541322e+00 2.4661333077e-01 9.9863770297e+00) (1.3036872907e-03 8.2248103011e-03 -5.7283809636e-02) (0.0000000000e+00 0.0000000000e+00 0.0000000000e+00))
2.7924099074e-01	((4.9320063920e+00 3.0403446884e+01 1.4990278029e-18) (1.6450258774e-01 -2.6073892022e-02 -3.4922361117e-21) (0.0000000000e+00 0.0000000000e+00 0.0000000000e+00)) ((-1.5201723442e+00 2.4660031960e-01 9.9868850127e+00) (1.3036946011e-03 8.2251293868e-03 -5.7285913162e-02) (0.0000000000e+00 0.0000000000e+00 0.0000000000e+00))
2.8124089529e-01	((4.9317420937e+00 3.0405846246e+01 1.4991503433e-18) (1.6450887374e-01 -2.6074011214e-02 -3.4926258457e-21) (0.0000000000e+00 0.0000000000e+00 0.0000000000e+00)) ((-1.5202923123e+00 2.4658710469e-01 9.9873987033e+00) (1.3037005607e-03 8.2254436868e-03 -5.7287978202e-02) (0.0000000000e+00 0.0000000000e+00 0.0000000000e+00))
2.8324079985e-01	((4.9315666187e+00 3.0408266890e+01 1.4993101319e-18) (1.6451506162e-01 -2.6074105210e-02 -3.4930507838e-21) (0.0000000000e+00 0.0000000000e+00 0.0000000000e+00)) ((-1.5204133445e+00 2.4657833093e-01 9.9879851281e+00) (1.3037052605e-03 8.2257530811e-03 -5.7290005634e-02) (0.0000000000e+00 0.0000000000e+00 0.0000000000e+00))
2.8524070440e-01	((4.9313587646e+00 3.0410681603e+01 1.4994568552e-18) (1.6452115586e-01 -2.6074175875e-02 -3.4934604491e-21) (0.0000000000e+00 0.0000000000e+00 0.0000000000e+00)) ((-1.5205340801e+00 2.4656793823e-01 9.9885485293e+00) (1.3037087937e-03 8.2260577929e-03 -5.7291997102e-02) (0.0000000000e+00 0.0000000000e+00 0.0000000000e+00))
2.8724060895e-01	((4.9310509115e+00 3.0412852612e+01 1.4995521928e-18) (1.6452715701e-01 -2.6074222123e-02 -3.4938139298e-21) (0.0000000000e+00 0.0000000000e+00 0.0000000000e+00)) ((-1.5206426306e+00 2.4655254557e-01 9.9889716052e+00) (1.3037111061e-03 8.2263578507e-03 -5.7293953506e-02) (0.0000000000e+00 0.0000000000e+00 0.0000000000e+00))
2.8924051351e-01	((4.9308699254e+00 3.0415228058e+01 1.4997091974e-18) (1.6453307081e-01 -2.6074249453e-02 -3.4942302403e-21) (0.0000000000e+00 0.0000000000e+00 0.0000000000e+00)) ((-1.5207614029e+00 2.4654349627e-01 9.9895374154e+00) (1.3037124727e-03 8.2266535406e-03 -5.7295877203e-02) (0.0000000000e+00 0.0000000000e+00 0.0000000000e+00))
2.9124041806e-01	((4.9305986848e+00 3.0417425373e+01 1.4998227328e-18) (1.6453889937e-01 -2.6074252233e-02 -3.4945998108e-21) (0.0000000000e+00 0.0000000000e+00 0.0000000000e+00)) ((-1.5208712686e+00 2.4652993424e-01 9.9899973129e+00) (1.3037126117e-03 8.2269449685e-03 -5.7297766622e-02) (0.0000000000e+00 0.0000000000e+00 0.0000000000e+00))
2.9324032261e-01	((4.9303994911e+00 3.0419776268e+01 1.4999709216e-18) (1.6454465034e-01 -2.6074235533e-02 -3.4950066593e-21) (0.0000000000e+00 0.0000000000e+00 0.0000000000e+00)) ((-1.5209888134e+00 2.4651997455e-01 9.9905442830e+00) (1.3037117767e-03 8.2272325170e-03 -5.7299629555e-02) (0.0000000000e+00 0.0000000000e+00 0.0000000000e+00))
2.9524022716e-01	((4.9300983044e+00 3.0421842692e+01 1.5000676408e-18) (1.6455032754e-01 -2.6074192904e-02 -3.4953520657e-21) (0.0000000000e+00 0.0000000000e+00 0.0000000000e+00)) ((-1.5210921346e+00 2.4650491522e-01 9.9909466497e+00) (1.3037096452e-03 8.2275163771e-03 -5.7301462951e-02) (0.0000000000e+00 0.0000000000e+00 0.0000000000e+00))
2.9724013172e-01	((4.9298477305e+00 3.0424057841e+01 1.5001919936e-18) (1.6455592818e-01 -2.6074130145e-02 -3.4957333372e-21) (0.0000000000e+00 0.0000000000e+00 0.0000000000e+00)) ((-1.5212028920e+00 2.4649238652e-01 9.9914225174e+00) (1.3037065072e-03 8.2277964091e-03 -5.7303267422e-02) (0.0000000000e+00 0.0000000000e+00 0.0000000000e+00))
2.9924003627e-01	((4.9295863492e+00 3.0426255564e+01 1.5003078103e-18) (1.6456145219e-01 -2.6074049808e-02 -3.4960990773e-21) (0.0000000000e+00 0.0000000000e+00 0.0000000000e+00)) ((-1.5213127782e+00 2.4647931746e-01 9.9918871266e+00) (1.3037024904e-03 8.2280726094e-03 -5.7305044945e-02) (0.0000000000e+00 0.0000000000e+00 0.0000000000e+00))
