# Forces         
# CofR           : (0.0000000000e+00 0.0000000000e+00 0.0000000000e+00)
# Time           forces(pressure viscous porous) moment(pressure viscous porous)
3.0193782802e-01	((4.8643940237e+00 2.9502671003e+01 6.9513501708e-19) (1.6395553007e-01 -2.5664913620e-02 8.0886200760e-22) (0.0000000000e+00 0.0000000000e+00 0.0000000000e+00)) ((-1.4751335501e+00 2.4321970119e-01 9.3781955236e+00) (1.2832456810e-03 8.1977765037e-03 -5.5081585940e-02) (0.0000000000e+00 0.0000000000e+00 0.0000000000e+00))
3.0395614602e-01	((4.8641033941e+00 2.9504846280e+01 6.9522394527e-19) (1.6396100598e-01 -2.5664546185e-02 8.0862384809e-22) (0.0000000000e+00 0.0000000000e+00 0.0000000000e+00)) ((-1.4752423140e+00 2.4320516971e-01 9.3786367768e+00) (1.2832273092e-03 8.1980502990e-03 -5.5083286651e-02) (0.0000000000e+00 0.0000000000e+00 0.0000000000e+00))
3.0597387405e-01	((4.8637306826e+00 2.9506937495e+01 6.9535539296e-19) (1.6396635554e-01 -2.5664125296e-02 8.0860146202e-22) (0.0000000000e+00 0.0000000000e+00 0.0000000000e+00)) ((-1.4753468748e+00 2.4318653413e-01 9.3789973358e+00) (1.2832062648e-03 8.1983177769e-03 -5.5084932580e-02) (0.0000000000e+00 0.0000000000e+00 0.0000000000e+00))
3.0799160207e-01	((4.8633832481e+00 2.9508968153e+01 6.9549871382e-19) (1.6397163663e-01 -2.5663677825e-02 8.0854636159e-22) (0.0000000000e+00 0.0000000000e+00 0.0000000000e+00)) ((-1.4754484077e+00 2.4316916241e-01 9.3793540192e+00) (1.2831838912e-03 8.1985818317e-03 -5.5086546602e-02) (0.0000000000e+00 0.0000000000e+00 0.0000000000e+00))
3.1000933010e-01	((4.8630939012e+00 2.9511150656e+01 6.9556870255e-19) (1.6397684516e-01 -2.5663224519e-02 8.0858990929e-22) (0.0000000000e+00 0.0000000000e+00 0.0000000000e+00)) ((-1.4755575328e+00 2.4315469506e-01 9.3797924717e+00) (1.2831612260e-03 8.1988422581e-03 -5.5088139496e-02) (0.0000000000e+00 0.0000000000e+00 0.0000000000e+00))
3.1202705812e-01	((4.8628333151e+00 2.9513277929e+01 6.9564764028e-19) (1.6398198417e-01 -2.5662757897e-02 8.0861282492e-22) (0.0000000000e+00 0.0000000000e+00 0.0000000000e+00)) ((-1.4756638964e+00 2.4314166575e-01 9.3802363819e+00) (1.2831378949e-03 8.1990992086e-03 -5.5089706809e-02) (0.0000000000e+00 0.0000000000e+00 0.0000000000e+00))
3.1404435525e-01	((4.8625604683e+00 2.9515347695e+01 6.9573375600e-19) (1.6398712080e-01 -2.5662354427e-02 8.0833506979e-22) (0.0000000000e+00 0.0000000000e+00 0.0000000000e+00)) ((-1.4757673847e+00 2.4312802341e-01 9.3806583396e+00) (1.2831177213e-03 8.1993560401e-03 -5.5091297183e-02) (0.0000000000e+00 0.0000000000e+00 0.0000000000e+00))
3.1606114654e-01	((4.8621777380e+00 2.9517376154e+01 6.9583097444e-19) (1.6399211579e-01 -2.5661871962e-02 8.0835220894e-22) (0.0000000000e+00 0.0000000000e+00 0.0000000000e+00)) ((-1.4758688077e+00 2.4310888690e-01 9.3809918396e+00) (1.2830935981e-03 8.1996057896e-03 -5.5092818388e-02) (0.0000000000e+00 0.0000000000e+00 0.0000000000e+00))
3.1807793783e-01	((4.8618487576e+00 2.9519160980e+01 6.9601968550e-19) (1.6399703866e-01 -2.5661372018e-02 8.0823872140e-22) (0.0000000000e+00 0.0000000000e+00 0.0000000000e+00)) ((-1.4759580490e+00 2.4309243788e-01 9.3813123474e+00) (1.2830686009e-03 8.1998519329e-03 -5.5094312725e-02) (0.0000000000e+00 0.0000000000e+00 0.0000000000e+00))
3.2009472912e-01	((4.8615562402e+00 2.9521161688e+01 6.9609997237e-19) (1.6400187854e-01 -2.5660843639e-02 8.0826169372e-22) (0.0000000000e+00 0.0000000000e+00 0.0000000000e+00)) ((-1.4760580844e+00 2.4307781201e-01 9.3817033304e+00) (1.2830421819e-03 8.2000939269e-03 -5.5095772325e-02) (0.0000000000e+00 0.0000000000e+00 0.0000000000e+00))
3.2211152040e-01	((4.8612403196e+00 2.9523104525e+01 6.9620348374e-19) (1.6400664309e-01 -2.5660309195e-02 8.0825568931e-22) (0.0000000000e+00 0.0000000000e+00 0.0000000000e+00)) ((-1.4761552262e+00 2.4306201598e-01 9.3820615508e+00) (1.2830154598e-03 8.2003321546e-03 -5.5097210029e-02) (0.0000000000e+00 0.0000000000e+00 0.0000000000e+00))
3.2412831169e-01	((4.8609267217e+00 2.9525065103e+01 6.9628816974e-19) (1.6401133868e-01 -2.5659766598e-02 8.0827089447e-22) (0.0000000000e+00 0.0000000000e+00 0.0000000000e+00)) ((-1.4762532552e+00 2.4304633609e-01 9.3824245220e+00) (1.2829883299e-03 8.2005669340e-03 -5.5098624869e-02) (0.0000000000e+00 0.0000000000e+00 0.0000000000e+00))
3.2614419898e-01	((4.8606142420e+00 2.9527006894e+01 6.9637450863e-19) (1.6401605019e-01 -2.5659308641e-02 8.0794860440e-22) (0.0000000000e+00 0.0000000000e+00 0.0000000000e+00)) ((-1.4763503447e+00 2.4303071210e-01 9.3827832208e+00) (1.2829654321e-03 8.2008025095e-03 -5.5100076666e-02) (0.0000000000e+00 0.0000000000e+00 0.0000000000e+00))
3.2815991407e-01	((4.8603020962e+00 2.9528926106e+01 6.9646957171e-19) (1.6402062534e-01 -2.5658751596e-02 8.0794978666e-22) (0.0000000000e+00 0.0000000000e+00 0.0000000000e+00)) ((-1.4764463053e+00 2.4301510481e-01 9.3831358357e+00) (1.2829375798e-03 8.2010312669e-03 -5.5101451181e-02) (0.0000000000e+00 0.0000000000e+00 0.0000000000e+00))
3.3017562917e-01	((4.8599895571e+00 2.9530823786e+01 6.9655812025e-19) (1.6402513552e-01 -2.5658185708e-02 8.0795696270e-22) (0.0000000000e+00 0.0000000000e+00 0.0000000000e+00)) ((-1.4765411893e+00 2.4299947785e-01 9.3834824756e+00) (1.2829092854e-03 8.2012567759e-03 -5.5102803639e-02) (0.0000000000e+00 0.0000000000e+00 0.0000000000e+00))
3.3219134426e-01	((4.8596776968e+00 2.9532704423e+01 6.9664344373e-19) (1.6402958176e-01 -2.5657612445e-02 8.0796717057e-22) (0.0000000000e+00 0.0000000000e+00 0.0000000000e+00)) ((-1.4766352212e+00 2.4298388484e-01 9.3838247536e+00) (1.2828806223e-03 8.2014790879e-03 -5.5104134720e-02) (0.0000000000e+00 0.0000000000e+00 0.0000000000e+00))
3.3420705935e-01	((4.8593661976e+00 2.9534566505e+01 6.9672218700e-19) (1.6403396455e-01 -2.5657031662e-02 8.0798331791e-22) (0.0000000000e+00 0.0000000000e+00 0.0000000000e+00)) ((-1.4767283253e+00 2.4296830988e-01 9.3841622978e+00) (1.2828515831e-03 8.2016982276e-03 -5.5105444530e-02) (0.0000000000e+00 0.0000000000e+00 0.0000000000e+00))
3.3622277445e-01	((4.8590574877e+00 2.9536417524e+01 6.9680307679e-19) (1.6403828798e-01 -2.5656443413e-02 8.0799618460e-22) (0.0000000000e+00 0.0000000000e+00 0.0000000000e+00)) ((-1.4768208762e+00 2.4295287439e-01 9.3844982095e+00) (1.2828221707e-03 8.2019143989e-03 -5.5106734167e-02) (0.0000000000e+00 0.0000000000e+00 0.0000000000e+00))
3.3823841080e-01	((4.8587490668e+00 2.9538252660e+01 6.9687968851e-19) (1.6404261037e-01 -2.5655886628e-02 8.0759594992e-22) (0.0000000000e+00 0.0000000000e+00 0.0000000000e+00)) ((-1.4769126330e+00 2.4293745334e-01 9.3848270743e+00) (1.2827943314e-03 8.2021305185e-03 -5.5108030017e-02) (0.0000000000e+00 0.0000000000e+00 0.0000000000e+00))
3.4025281358e-01	((4.8584392832e+00 2.9540056336e+01 6.9696179918e-19) (1.6404686447e-01 -2.5655368669e-02 8.0761396338e-22) (0.0000000000e+00 0.0000000000e+00 0.0000000000e+00)) ((-1.4770028168e+00 2.4292196416e-01 9.3851536746e+00) (1.2827684335e-03 8.2023432236e-03 -5.5109330495e-02) (0.0000000000e+00 0.0000000000e+00 0.0000000000e+00))
3.4226721636e-01	((4.8581310055e+00 2.9541848975e+01 6.9704072965e-19) (1.6405102069e-01 -2.5654765479e-02 8.0762558011e-22) (0.0000000000e+00 0.0000000000e+00 0.0000000000e+00)) ((-1.4770924487e+00 2.4290655027e-01 9.3854744883e+00) (1.2827382739e-03 8.2025510343e-03 -5.5110566183e-02) (0.0000000000e+00 0.0000000000e+00 0.0000000000e+00))
3.4428161914e-01	((4.8578234285e+00 2.9543625661e+01 6.9711707107e-19) (1.6405511835e-01 -2.5654155537e-02 8.0763929994e-22) (0.0000000000e+00 0.0000000000e+00 0.0000000000e+00)) ((-1.4771812830e+00 2.4289117143e-01 9.3857913385e+00) (1.2827077768e-03 8.2027559177e-03 -5.5111782207e-02) (0.0000000000e+00 0.0000000000e+00 0.0000000000e+00))
3.4629602192e-01	((4.8575164755e+00 2.9545385901e+01 6.9718936553e-19) (1.6405915927e-01 -2.5653539380e-02 8.0765694283e-22) (0.0000000000e+00 0.0000000000e+00 0.0000000000e+00)) ((-1.4772692950e+00 2.4287582378e-01 9.3861041354e+00) (1.2826769690e-03 8.2029579637e-03 -5.5112979385e-02) (0.0000000000e+00 0.0000000000e+00 0.0000000000e+00))
3.4831042469e-01	((4.8572094933e+00 2.9547128228e+01 6.9726421046e-19) (1.6406314294e-01 -2.5652917766e-02 8.0767109317e-22) (0.0000000000e+00 0.0000000000e+00 0.0000000000e+00)) ((-1.4773564114e+00 2.4286047466e-01 9.3864122854e+00) (1.2826458883e-03 8.2031571469e-03 -5.5114157891e-02) (0.0000000000e+00 0.0000000000e+00 0.0000000000e+00))
3.5032482747e-01	((4.8569034109e+00 2.9548856382e+01 6.9733667030e-19) (1.6406707079e-01 -2.5652291376e-02 8.0768680150e-22) (0.0000000000e+00 0.0000000000e+00 0.0000000000e+00)) ((-1.4774428191e+00 2.4284517054e-01 9.3867171664e+00) (1.2826145688e-03 8.2033535394e-03 -5.5115318152e-02) (0.0000000000e+00 0.0000000000e+00 0.0000000000e+00))
3.5233923025e-01	((4.8565976846e+00 2.9550568159e+01 6.9740846752e-19) (1.6407094423e-01 -2.5651660673e-02 8.0770238952e-22) (0.0000000000e+00 0.0000000000e+00 0.0000000000e+00)) ((-1.4775284079e+00 2.4282988423e-01 9.3870179194e+00) (1.2825830337e-03 8.2035472117e-03 -5.5116460632e-02) (0.0000000000e+00 0.0000000000e+00 0.0000000000e+00))
3.5435363303e-01	((4.8562894682e+00 2.9552233714e+01 6.9749429929e-19) (1.6407476502e-01 -2.5651026872e-02 8.0769986731e-22) (0.0000000000e+00 0.0000000000e+00 0.0000000000e+00)) ((-1.4776116857e+00 2.4281447341e-01 9.3873064348e+00) (1.2825513436e-03 8.2037382508e-03 -5.5117586235e-02) (0.0000000000e+00 0.0000000000e+00 0.0000000000e+00))
3.5636744980e-01	((4.8559854186e+00 2.9553914115e+01 6.9756304042e-19) (1.6407867061e-01 -2.5650526040e-02 8.0714781434e-22) (0.0000000000e+00 0.0000000000e+00 0.0000000000e+00)) ((-1.4776957057e+00 2.4279927093e-01 9.3876002158e+00) (1.2825263020e-03 8.2039335307e-03 -5.5118784488e-02) (0.0000000000e+00 0.0000000000e+00 0.0000000000e+00))
3.5838002131e-01	((4.8556805181e+00 2.9555574214e+01 6.9763517713e-19) (1.6408239571e-01 -2.5649916525e-02 8.0715995609e-22) (0.0000000000e+00 0.0000000000e+00 0.0000000000e+00)) ((-1.4777787107e+00 2.4278402590e-01 9.3878880103e+00) (1.2824958263e-03 8.2041197855e-03 -5.5119893036e-02) (0.0000000000e+00 0.0000000000e+00 0.0000000000e+00))
3.6039259281e-01	((4.8553698966e+00 2.9557201378e+01 6.9771664954e-19) (1.6408607398e-01 -2.5649280379e-02 8.0715928119e-22) (0.0000000000e+00 0.0000000000e+00 0.0000000000e+00)) ((-1.4778600689e+00 2.4276849483e-01 9.3881638791e+00) (1.2824640190e-03 8.2043036991e-03 -5.5120974780e-02) (0.0000000000e+00 0.0000000000e+00 0.0000000000e+00))
3.6240516431e-01	((4.8550769509e+00 2.9558865837e+01 6.9776866569e-19) (1.6408969940e-01 -2.5648639293e-02 8.0719401037e-22) (0.0000000000e+00 0.0000000000e+00 0.0000000000e+00)) ((-1.4779432918e+00 2.4275384754e-01 9.3884589022e+00) (1.2824319646e-03 8.2044849699e-03 -5.5122038997e-02) (0.0000000000e+00 0.0000000000e+00 0.0000000000e+00))
3.6441773582e-01	((4.8547167485e+00 2.9560355382e+01 6.9789130258e-19) (1.6409327444e-01 -2.5647997019e-02 8.0714480597e-22) (0.0000000000e+00 0.0000000000e+00 0.0000000000e+00)) ((-1.4780177691e+00 2.4273583743e-01 9.3886672134e+00) (1.2823998509e-03 8.2046637218e-03 -5.5123086459e-02) (0.0000000000e+00 0.0000000000e+00 0.0000000000e+00))
3.6643030732e-01	((4.8544633462e+00 2.9562054084e+01 6.9792321362e-19) (1.6409679955e-01 -2.5647353362e-02 8.0720096577e-22) (0.0000000000e+00 0.0000000000e+00 0.0000000000e+00)) ((-1.4781027042e+00 2.4272316731e-01 9.3889973316e+00) (1.2823676681e-03 8.2048399776e-03 -5.5124118281e-02) (0.0000000000e+00 0.0000000000e+00 0.0000000000e+00))
3.6844287882e-01	((4.8542049951e+00 2.9563903264e+01 6.9787915128e-19) (1.6410026459e-01 -2.5646701497e-02 8.0734958662e-22) (0.0000000000e+00 0.0000000000e+00 0.0000000000e+00)) ((-1.4781951632e+00 2.4271024975e-01 9.3893478434e+00) (1.2823350748e-03 8.2050132295e-03 -5.5125128892e-02) (0.0000000000e+00 0.0000000000e+00 0.0000000000e+00))
3.7045545033e-01	((4.8538445447e+00 2.9565409406e+01 6.9797201700e-19) (1.6410366881e-01 -2.5646051940e-02 8.0734216100e-22) (0.0000000000e+00 0.0000000000e+00 0.0000000000e+00)) ((-1.4782704703e+00 2.4269222724e-01 9.3895613872e+00) (1.2823025970e-03 8.2051834405e-03 -5.5126127220e-02) (0.0000000000e+00 0.0000000000e+00 0.0000000000e+00))
3.7246802183e-01	((4.8535997990e+00 2.9567013425e+01 6.9801497607e-19) (1.6410702751e-01 -2.5645393861e-02 8.0737511631e-22) (0.0000000000e+00 0.0000000000e+00 0.0000000000e+00)) ((-1.4783506713e+00 2.4267998995e-01 9.3898711725e+00) (1.2822696931e-03 8.2053513755e-03 -5.5127107001e-02) (0.0000000000e+00 0.0000000000e+00 0.0000000000e+00))
3.7448059333e-01	((4.8532810430e+00 2.9568530747e+01 6.9809233053e-19) (1.6411034769e-01 -2.5644731462e-02 8.0737589043e-22) (0.0000000000e+00 0.0000000000e+00 0.0000000000e+00)) ((-1.4784265374e+00 2.4266405215e-01 9.3901125695e+00) (1.2822365731e-03 8.2055173846e-03 -5.5128071512e-02) (0.0000000000e+00 0.0000000000e+00 0.0000000000e+00))
3.7649316484e-01	((4.8530051709e+00 2.9570045288e+01 6.9815238270e-19) (1.6411361429e-01 -2.5644072319e-02 8.0738777441e-22) (0.0000000000e+00 0.0000000000e+00 0.0000000000e+00)) ((-1.4785022644e+00 2.4265025855e-01 9.3903786904e+00) (1.2822036160e-03 8.2056807145e-03 -5.5129024757e-02) (0.0000000000e+00 0.0000000000e+00 0.0000000000e+00))
3.7850573634e-01	((4.8527434926e+00 2.9571626703e+01 6.9819299418e-19) (1.6411683700e-01 -2.5643408357e-02 8.0743064143e-22) (0.0000000000e+00 0.0000000000e+00 0.0000000000e+00)) ((-1.4785813351e+00 2.4263717463e-01 9.3906760941e+00) (1.2821704179e-03 8.2058418501e-03 -5.5129962654e-02) (0.0000000000e+00 0.0000000000e+00 0.0000000000e+00))
3.8051830785e-01	((4.8523924091e+00 2.9573078825e+01 6.9828071865e-19) (1.6412001600e-01 -2.5642742419e-02 8.0741946775e-22) (0.0000000000e+00 0.0000000000e+00 0.0000000000e+00)) ((-1.4786539413e+00 2.4261962045e-01 9.3908735976e+00) (1.2821371209e-03 8.2060007999e-03 -5.5130886934e-02) (0.0000000000e+00 0.0000000000e+00 0.0000000000e+00))
3.8252962429e-01	((4.8520571107e+00 2.9574516846e+01 6.9836187705e-19) (1.6412348182e-01 -2.5642393723e-02 8.0601842753e-22) (0.0000000000e+00 0.0000000000e+00 0.0000000000e+00)) ((-1.4787258423e+00 2.4260285554e-01 9.3910826562e+00) (1.2821196862e-03 8.2061740910e-03 -5.5132008150e-02) (0.0000000000e+00 0.0000000000e+00 0.0000000000e+00))
3.8453771345e-01	((4.8518230500e+00 2.9576026312e+01 6.9839982668e-19) (1.6412659261e-01 -2.5641815551e-02 8.0605292187e-22) (0.0000000000e+00 0.0000000000e+00 0.0000000000e+00)) ((-1.4788013156e+00 2.4259115250e-01 9.3913775987e+00) (1.2820907776e-03 8.2063296306e-03 -5.5132953637e-02) (0.0000000000e+00 0.0000000000e+00 0.0000000000e+00))
3.8654580262e-01	((4.8514866759e+00 2.9577476843e+01 6.9846673460e-19) (1.6412967231e-01 -2.5641154259e-02 8.0606331935e-22) (0.0000000000e+00 0.0000000000e+00 0.0000000000e+00)) ((-1.4788738422e+00 2.4257433379e-01 9.3915863712e+00) (1.2820577129e-03 8.2064836156e-03 -5.5133848979e-02) (0.0000000000e+00 0.0000000000e+00 0.0000000000e+00))
3.8855389178e-01	((4.8512124338e+00 2.9578925533e+01 6.9852129217e-19) (1.6413269810e-01 -2.5640492702e-02 8.0608112237e-22) (0.0000000000e+00 0.0000000000e+00 0.0000000000e+00)) ((-1.4789462767e+00 2.4256062169e-01 9.3918358684e+00) (1.2820246351e-03 8.2066349049e-03 -5.5134729691e-02) (0.0000000000e+00 0.0000000000e+00 0.0000000000e+00))
3.9056198094e-01	((4.8509422987e+00 2.9580393766e+01 6.9856298708e-19) (1.6413567867e-01 -2.5639830504e-02 8.0611832081e-22) (0.0000000000e+00 0.0000000000e+00 0.0000000000e+00)) ((-1.4790196883e+00 2.4254711493e-01 9.3920960834e+00) (1.2819915252e-03 8.2067839336e-03 -5.5135597191e-02) (0.0000000000e+00 0.0000000000e+00 0.0000000000e+00))
3.9257007010e-01	((4.8505870745e+00 2.9581762134e+01 6.9864421343e-19) (1.6413861734e-01 -2.5639165469e-02 8.0611029063e-22) (0.0000000000e+00 0.0000000000e+00 0.0000000000e+00)) ((-1.4790881067e+00 2.4252935372e-01 9.3922705650e+00) (1.2819582734e-03 8.2069308670e-03 -5.5136450311e-02) (0.0000000000e+00 0.0000000000e+00 0.0000000000e+00))
3.9457815926e-01	((4.8503537283e+00 2.9583232643e+01 6.9868190311e-19) (1.6414152037e-01 -2.5638492109e-02 8.0614311172e-22) (0.0000000000e+00 0.0000000000e+00 0.0000000000e+00)) ((-1.4791616321e+00 2.4251768642e-01 9.3925528681e+00) (1.2819246054e-03 8.2070760187e-03 -5.5137285766e-02) (0.0000000000e+00 0.0000000000e+00 0.0000000000e+00))
3.9658624843e-01	((4.8500168616e+00 2.9584601259e+01 6.9875905516e-19) (1.6414437755e-01 -2.5637821033e-02 8.0613558666e-22) (0.0000000000e+00 0.0000000000e+00 0.0000000000e+00)) ((-1.4792300629e+00 2.4250084308e-01 9.3927373331e+00) (1.2818910517e-03 8.2072188775e-03 -5.5138109989e-02) (0.0000000000e+00 0.0000000000e+00 0.0000000000e+00))
3.9859433759e-01	((4.8497082336e+00 2.9585975147e+01 6.9881907718e-19) (1.6414719000e-01 -2.5637158265e-02 8.0615325574e-22) (0.0000000000e+00 0.0000000000e+00 0.0000000000e+00)) ((-1.4792987573e+00 2.4248541168e-01 9.3929495935e+00) (1.2818579133e-03 8.2073595000e-03 -5.5138925841e-02) (0.0000000000e+00 0.0000000000e+00 0.0000000000e+00))
