# Forces         
# CofR           : (0.0000000000e+00 0.0000000000e+00 0.0000000000e+00)
# Time           forces(pressure viscous porous) moment(pressure viscous porous)
1.2798387847e-03	((1.9600282836e+01 3.1859125927e+01 -2.7581982661e-20) (3.1226698994e-01 -1.1422533705e-01 3.0100158460e-21) (0.0000000000e+00 0.0000000000e+00 0.0000000000e+00)) ((-1.5929562963e+00 9.8001414178e-01 1.8594418444e+01) (5.7112668523e-03 1.5613349497e-02 -6.4560130519e-02) (0.0000000000e+00 0.0000000000e+00 0.0000000000e+00))
2.6938045692e-03	((1.9044609652e+01 3.1617474132e+01 -4.2940600506e-20) (2.5754182703e-01 -9.2725368165e-02 2.2851300832e-21) (0.0000000000e+00 0.0000000000e+00 0.0000000000e+00)) ((-1.5808737066e+00 9.5223048262e-01 1.8168705854e+01) (4.6362684083e-03 1.2877091352e-02 -5.2204088899e-02) (0.0000000000e+00 0.0000000000e+00 0.0000000000e+00))
4.1319789197e-03	((1.8820848439e+01 3.1552464779e+01 -5.3365798741e-20) (2.3766128078e-01 -8.4801467864e-02 2.1554334004e-21) (0.0000000000e+00 0.0000000000e+00 0.0000000000e+00)) ((-1.5776232390e+00 9.4104242197e-01 1.7921714510e+01) (4.2400733932e-03 1.1883064039e-02 -4.7573496171e-02) (0.0000000000e+00 0.0000000000e+00 0.0000000000e+00))
5.5976248787e-03	((1.8592520997e+01 3.1511833766e+01 -6.9580302620e-20) (2.2931440607e-01 -8.1363113448e-02 2.1289436382e-21) (0.0000000000e+00 0.0000000000e+00 0.0000000000e+00)) ((-1.5755916883e+00 9.2962604984e-01 1.7702804114e+01) (4.0681556724e-03 1.1465720303e-02 -4.5289692264e-02) (0.0000000000e+00 0.0000000000e+00 0.0000000000e+00))
7.0925905775e-03	((1.8408690849e+01 3.1585658230e+01 -1.0939145919e-19) (2.2627468997e-01 -7.9590154788e-02 2.1414687925e-21) (0.0000000000e+00 0.0000000000e+00 0.0000000000e+00)) ((-1.5792829115e+00 9.2043454244e-01 1.7580208684e+01) (3.9795077394e-03 1.1313734499e-02 -4.3820928246e-02) (0.0000000000e+00 0.0000000000e+00 0.0000000000e+00))
8.6117053151e-03	((1.8259039476e+01 3.1704841389e+01 -1.8261692581e-19) (2.2507595145e-01 -7.8508732517e-02 2.2956857566e-21) (0.0000000000e+00 0.0000000000e+00 0.0000000000e+00)) ((-1.5852420694e+00 9.1295197380e-01 1.7501886020e+01) (3.9254366259e-03 1.1253797572e-02 -4.2869167513e-02) (0.0000000000e+00 0.0000000000e+00 0.0000000000e+00))
1.0147344376e-02	((1.8141848230e+01 3.1817187284e+01 -2.7321776989e-19) (2.2435539036e-01 -7.7796305276e-02 2.3912765435e-21) (0.0000000000e+00 0.0000000000e+00 0.0000000000e+00)) ((-1.5908593642e+00 9.0709241150e-01 1.7445044875e+01) (3.8898152638e-03 1.1217769518e-02 -4.2293770726e-02) (0.0000000000e+00 0.0000000000e+00 0.0000000000e+00))
1.1693503178e-02	((1.8026018509e+01 3.1879704314e+01 -3.7573664795e-19) (2.2374278658e-01 -7.7235516988e-02 2.4255488828e-21) (0.0000000000e+00 0.0000000000e+00 0.0000000000e+00)) ((-1.5939852157e+00 9.0130092547e-01 1.7367112499e+01) (3.8617758494e-03 1.1187139329e-02 -4.1928300871e-02) (0.0000000000e+00 0.0000000000e+00 0.0000000000e+00))
1.3246909267e-02	((1.7914029375e+01 3.1896186173e+01 -4.6010697746e-19) (2.2316638885e-01 -7.6784897801e-02 2.4723648322e-21) (0.0000000000e+00 0.0000000000e+00 0.0000000000e+00)) ((-1.5948093086e+00 8.9570146875e-01 1.7267295317e+01) (3.8392448901e-03 1.1158319442e-02 -4.1687693785e-02) (0.0000000000e+00 0.0000000000e+00 0.0000000000e+00))
1.4806366590e-02	((1.7798343069e+01 3.1861941699e+01 -5.0327714810e-19) (2.2251620554e-01 -7.6433464222e-02 2.4487558435e-21) (0.0000000000e+00 0.0000000000e+00 0.0000000000e+00)) ((-1.5930970849e+00 8.8991715344e-01 1.7138434658e+01) (3.8216732111e-03 1.1125810277e-02 -4.1576291685e-02) (0.0000000000e+00 0.0000000000e+00 0.0000000000e+00))
1.6371947308e-02	((1.7664091933e+01 3.1777258646e+01 -5.3522580926e-19) (2.2165177334e-01 -7.6113415669e-02 2.4241547755e-21) (0.0000000000e+00 0.0000000000e+00 0.0000000000e+00)) ((-1.5888629323e+00 8.8320459664e-01 1.6968524587e+01) (3.8056707834e-03 1.1082588667e-02 -4.1584145880e-02) (0.0000000000e+00 0.0000000000e+00 0.0000000000e+00))
1.7944431665e-02	((1.7498340343e+01 3.1645713585e+01 -5.7193870110e-19) (2.2055592122e-01 -7.5798452460e-02 2.3688798657e-21) (0.0000000000e+00 0.0000000000e+00 0.0000000000e+00)) ((-1.5822856793e+00 8.7491701713e-01 1.6752922937e+01) (3.7899226230e-03 1.1027796061e-02 -4.1702947555e-02) (0.0000000000e+00 0.0000000000e+00 0.0000000000e+00))
1.9524640862e-02	((1.7269299706e+01 3.1449599903e+01 -5.9734920078e-19) (2.1924555748e-01 -7.5475755878e-02 2.3367652340e-21) (0.0000000000e+00 0.0000000000e+00 0.0000000000e+00)) ((-1.5724799951e+00 8.6346498531e-01 1.6463299416e+01) (3.7737877939e-03 1.0962277874e-02 -4.1933063948e-02) (0.0000000000e+00 0.0000000000e+00 0.0000000000e+00))
2.1113351016e-02	((1.6940723680e+01 3.1164131704e+01 -6.1364093290e-19) (2.1776262657e-01 -7.5098199159e-02 2.3534450235e-21) (0.0000000000e+00 0.0000000000e+00 0.0000000000e+00)) ((-1.5582065852e+00 8.4703618402e-01 1.6065662103e+01) (3.7549099579e-03 1.0888131328e-02 -4.2217569392e-02) (0.0000000000e+00 0.0000000000e+00 0.0000000000e+00))
2.2711127982e-02	((1.6556434973e+01 3.0827149883e+01 -6.3202562878e-19) (2.1616258573e-01 -7.4626180170e-02 2.3822909670e-21) (0.0000000000e+00 0.0000000000e+00 0.0000000000e+00)) ((-1.5413574942e+00 8.2782174865e-01 1.5616593000e+01) (3.7313090085e-03 1.0808129286e-02 -4.2482155129e-02) (0.0000000000e+00 0.0000000000e+00 0.0000000000e+00))
2.4318329248e-02	((1.6199814575e+01 3.0510689632e+01 -6.5252872779e-19) (2.1445108227e-01 -7.3972681768e-02 2.3872707031e-21) (0.0000000000e+00 0.0000000000e+00 0.0000000000e+00)) ((-1.5255344816e+00 8.0999072876e-01 1.5212076771e+01) (3.6986340884e-03 1.0722554113e-02 -4.2652614811e-02) (0.0000000000e+00 0.0000000000e+00 0.0000000000e+00))
2.5934979698e-02	((1.5923003716e+01 3.0271174912e+01 -6.6889502593e-19) (2.1267125296e-01 -7.3122886015e-02 2.3671410697e-21) (0.0000000000e+00 0.0000000000e+00 0.0000000000e+00)) ((-1.5135587456e+00 7.9615018578e-01 1.4907290815e+01) (3.6561443008e-03 1.0633562648e-02 -4.2699887520e-02) (0.0000000000e+00 0.0000000000e+00 0.0000000000e+00))
2.7560498113e-02	((1.5706521689e+01 3.0090346171e+01 -6.7970783643e-19) (2.1089992296e-01 -7.2133824468e-02 2.3382116378e-21) (0.0000000000e+00 0.0000000000e+00 0.0000000000e+00)) ((-1.5045173085e+00 7.8532608443e-01 1.4675019687e+01) (3.6066912234e-03 1.0544996148e-02 -4.2633466915e-02) (0.0000000000e+00 0.0000000000e+00 0.0000000000e+00))
2.9194016440e-02	((1.5532854656e+01 2.9952222740e+01 -6.8962375434e-19) (2.0920037754e-01 -7.1077737011e-02 2.3040452931e-21) (0.0000000000e+00 0.0000000000e+00 0.0000000000e+00)) ((-1.4976111370e+00 7.7664273278e-01 1.4493481289e+01) (3.5538868505e-03 1.0460018877e-02 -4.2473863797e-02) (0.0000000000e+00 0.0000000000e+00 0.0000000000e+00))
3.0834612451e-02	((1.5377808037e+01 2.9827464172e+01 -7.0160092646e-19) (2.0760161709e-01 -7.0008691002e-02 2.2706612884e-21) (0.0000000000e+00 0.0000000000e+00 0.0000000000e+00)) ((-1.4913732086e+00 7.6889040186e-01 1.4335179609e+01) (3.5004345501e-03 1.0380080854e-02 -4.2246919657e-02) (0.0000000000e+00 0.0000000000e+00 0.0000000000e+00))
3.2480355232e-02	((1.5229803731e+01 2.9707500029e+01 -7.1346581861e-19) (2.0611676208e-01 -6.8960051877e-02 2.2427185720e-21) (0.0000000000e+00 0.0000000000e+00 0.0000000000e+00)) ((-1.4853750014e+00 7.6149018655e-01 1.4187724827e+01) (3.4480025938e-03 1.0305838104e-02 -4.1975868283e-02) (0.0000000000e+00 0.0000000000e+00 0.0000000000e+00))
3.4123557238e-02	((1.5078452613e+01 2.9581211653e+01 -7.2266520747e-19) (2.0473783946e-01 -6.7948950011e-02 2.2232483564e-21) (0.0000000000e+00 0.0000000000e+00 0.0000000000e+00)) ((-1.4790605827e+00 7.5392263064e-01 1.4038369327e+01) (3.3974475005e-03 1.0236891973e-02 -4.1682986342e-02) (0.0000000000e+00 0.0000000000e+00 0.0000000000e+00))
3.5763513243e-02	((1.4930579003e+01 2.9456765533e+01 -7.2833344963e-19) (2.0343564001e-01 -6.6982363726e-02 2.2124974462e-21) (0.0000000000e+00 0.0000000000e+00 0.0000000000e+00)) ((-1.4728382766e+00 7.4652895017e-01 1.3894106225e+01) (3.3491181863e-03 1.0171782001e-02 -4.1391144604e-02) (0.0000000000e+00 0.0000000000e+00 0.0000000000e+00))
3.7400806518e-02	((1.4783813587e+01 2.9331516570e+01 -7.3159342085e-19) (2.0218630311e-01 -6.6059731788e-02 2.2031787370e-21) (0.0000000000e+00 0.0000000000e+00 0.0000000000e+00)) ((-1.4665758285e+00 7.3919067937e-01 1.3750753442e+01) (3.3029865894e-03 1.0109315155e-02 -4.1114500799e-02) (0.0000000000e+00 0.0000000000e+00 0.0000000000e+00))
3.9035958647e-02	((1.4637000438e+01 2.9205663021e+01 -7.3246404183e-19) (2.0097402035e-01 -6.5170663591e-02 2.1927616688e-21) (0.0000000000e+00 0.0000000000e+00 0.0000000000e+00)) ((-1.4602831511e+00 7.3185002188e-01 1.3605908871e+01) (3.2585331795e-03 1.0048701018e-02 -4.0854461163e-02) (0.0000000000e+00 0.0000000000e+00 0.0000000000e+00))
4.0669372691e-02	((1.4493218484e+01 2.9085499908e+01 -7.3052448743e-19) (1.9978918607e-01 -6.4309432071e-02 2.1818541963e-21) (0.0000000000e+00 0.0000000000e+00 0.0000000000e+00)) ((-1.4542749954e+00 7.2466092422e-01 1.3462630760e+01) (3.2154716035e-03 9.9894593037e-03 -4.0610435161e-02) (0.0000000000e+00 0.0000000000e+00 0.0000000000e+00))
4.2301375427e-02	((1.4347468937e+01 2.8961338281e+01 -7.2709421203e-19) (1.9862937797e-01 -6.3469067831e-02 2.1728683231e-21) (0.0000000000e+00 0.0000000000e+00 0.0000000000e+00)) ((-1.4480669141e+00 7.1737344684e-01 1.3314424599e+01) (3.1734533916e-03 9.9314688986e-03 -4.0377126569e-02) (0.0000000000e+00 0.0000000000e+00 0.0000000000e+00))
4.3932189707e-02	((1.4205042441e+01 2.8841119243e+01 -7.2110514570e-19) (1.9749995428e-01 -6.2649743690e-02 2.1643311917e-21) (0.0000000000e+00 0.0000000000e+00 0.0000000000e+00)) ((-1.4420559621e+00 7.1025212205e-01 1.3168061341e+01) (3.1324871845e-03 9.8749977141e-03 -4.0156241674e-02) (0.0000000000e+00 0.0000000000e+00 0.0000000000e+00))
4.5562083257e-02	((1.4063042123e+01 2.8720659319e+01 -7.1430699593e-19) (1.9640309113e-01 -6.1849580916e-02 2.1529227556e-21) (0.0000000000e+00 0.0000000000e+00 0.0000000000e+00)) ((-1.4360329659e+00 7.0315210616e-01 1.3019576568e+01) (3.0924790458e-03 9.8201545563e-03 -3.9945501656e-02) (0.0000000000e+00 0.0000000000e+00 0.0000000000e+00))
4.7191242965e-02	((1.3923487622e+01 2.8604157160e+01 -7.0679971247e-19) (1.9533962817e-01 -6.1061437317e-02 2.1406364828e-21) (0.0000000000e+00 0.0000000000e+00 0.0000000000e+00)) ((-1.4302078580e+00 6.9617438111e-01 1.2872266188e+01) (3.0530718659e-03 9.7669814083e-03 -3.9746024846e-02) (0.0000000000e+00 0.0000000000e+00 0.0000000000e+00))
4.8819788683e-02	((1.3787415340e+01 2.8492177575e+01 -6.9865874523e-19) (1.9431552830e-01 -6.0288431120e-02 2.1284878727e-21) (0.0000000000e+00 0.0000000000e+00 0.0000000000e+00)) ((-1.4246088788e+00 6.8937076702e-01 1.2727924383e+01) (3.0144215560e-03 9.7157764149e-03 -3.9551239810e-02) (0.0000000000e+00 0.0000000000e+00 0.0000000000e+00))
5.0447796158e-02	((1.3656068910e+01 2.8386604821e+01 -6.8962994563e-19) (1.9333479208e-01 -5.9535551065e-02 2.1155411219e-21) (0.0000000000e+00 0.0000000000e+00 0.0000000000e+00)) ((-1.4193302410e+00 6.8280344552e-01 1.2588488411e+01) (2.9767775533e-03 9.6667396038e-03 -3.9360625956e-02) (0.0000000000e+00 0.0000000000e+00 0.0000000000e+00))
5.2075317990e-02	((1.3530046464e+01 2.8285742492e+01 -6.8100881010e-19) (1.9239800399e-01 -5.8805846314e-02 2.1012104802e-21) (0.0000000000e+00 0.0000000000e+00 0.0000000000e+00)) ((-1.4142871246e+00 6.7650232319e-01 1.2454595039e+01) (2.9402923157e-03 9.6199001995e-03 -3.9176267327e-02) (0.0000000000e+00 0.0000000000e+00 0.0000000000e+00))
5.3702400003e-02	((1.3410171428e+01 2.8191740115e+01 -6.7283450168e-19) (1.9150340050e-01 -5.8099635815e-02 2.0863841933e-21) (0.0000000000e+00 0.0000000000e+00 0.0000000000e+00)) ((-1.4095870057e+00 6.7050857139e-01 1.2327693421e+01) (2.9049817907e-03 9.5751700250e-03 -3.8999556845e-02) (0.0000000000e+00 0.0000000000e+00 0.0000000000e+00))
5.5329057417e-02	((1.3295005694e+01 2.8102337497e+01 -6.6508230720e-19) (1.9064838881e-01 -5.7422337783e-02 2.0698801138e-21) (0.0000000000e+00 0.0000000000e+00 0.0000000000e+00)) ((-1.4051168749e+00 6.6475028469e-01 1.2206206591e+01) (2.8711168892e-03 9.5324194407e-03 -3.8830707953e-02) (0.0000000000e+00 0.0000000000e+00 0.0000000000e+00))
5.6955329330e-02	((1.3185974906e+01 2.8018944667e+01 -6.5772739971e-19) (1.8982974531e-01 -5.6773945774e-02 2.0526062355e-21) (0.0000000000e+00 0.0000000000e+00 0.0000000000e+00)) ((-1.4009472334e+00 6.5929874529e-01 1.2092042591e+01) (2.8386972887e-03 9.4914872656e-03 -3.8668998864e-02) (0.0000000000e+00 0.0000000000e+00 0.0000000000e+00))
5.8581228841e-02	((1.3082684000e+01 2.7941209754e+01 -6.5092263598e-19) (1.8904626964e-01 -5.6152074961e-02 2.0346588141e-21) (0.0000000000e+00 0.0000000000e+00 0.0000000000e+00)) ((-1.3970604877e+00 6.5413420001e-01 1.1984991118e+01) (2.8076037481e-03 9.4523134820e-03 -3.8514869767e-02) (0.0000000000e+00 0.0000000000e+00 0.0000000000e+00))
6.0206781094e-02	((1.2983898251e+01 2.7868154272e+01 -6.4454218979e-19) (1.8829617101e-01 -5.5555491545e-02 2.0157654537e-21) (0.0000000000e+00 0.0000000000e+00 0.0000000000e+00)) ((-1.3934077136e+00 6.4919491255e-01 1.1883638744e+01) (2.7777745773e-03 9.4148085507e-03 -3.8367789452e-02) (0.0000000000e+00 0.0000000000e+00 0.0000000000e+00))
6.1832008986e-02	((1.2889781962e+01 2.7799681226e+01 -6.3861073985e-19) (1.8757427057e-01 -5.4982834541e-02 1.9969289302e-21) (0.0000000000e+00 0.0000000000e+00 0.0000000000e+00)) ((-1.3899840613e+00 6.4448909811e-01 1.1788086818e+01) (2.7491417271e-03 9.3787135283e-03 -3.8225727614e-02) (0.0000000000e+00 0.0000000000e+00 0.0000000000e+00))
6.3456921076e-02	((1.2800221157e+01 2.7736297547e+01 -6.3313021231e-19) (1.8687923445e-01 -5.4431931307e-02 1.9787391457e-21) (0.0000000000e+00 0.0000000000e+00 0.0000000000e+00)) ((-1.3868148773e+00 6.4001105786e-01 1.1698249957e+01) (2.7215965654e-03 9.3439617227e-03 -3.8088174780e-02) (0.0000000000e+00 0.0000000000e+00 0.0000000000e+00))
6.5081547737e-02	((1.2714592996e+01 2.7677038263e+01 -6.2802299156e-19) (1.8621056218e-01 -5.3900747843e-02 1.9609987179e-21) (0.0000000000e+00 0.0000000000e+00 0.0000000000e+00)) ((-1.3838519131e+00 6.3572964978e-01 1.1613390604e+01) (2.6950373921e-03 9.3105281091e-03 -3.7954844784e-02) (0.0000000000e+00 0.0000000000e+00 0.0000000000e+00))
6.6705883156e-02	((1.2633512734e+01 2.7623372668e+01 -6.2331751626e-19) (1.8556730376e-01 -5.3389259019e-02 1.9441216485e-21) (0.0000000000e+00 0.0000000000e+00 0.0000000000e+00)) ((-1.3811686334e+00 6.3167563669e-01 1.1533989521e+01) (2.6694629509e-03 9.2783651881e-03 -3.7825018388e-02) (0.0000000000e+00 0.0000000000e+00 0.0000000000e+00))
6.8329931197e-02	((1.2555464883e+01 2.7572621172e+01 -6.1891550592e-19) (1.8494833934e-01 -5.2896270992e-02 1.9280974521e-21) (0.0000000000e+00 0.0000000000e+00 0.0000000000e+00)) ((-1.3786310586e+00 6.2777324414e-01 1.1458360291e+01) (2.6448135496e-03 9.2474169669e-03 -3.7698213294e-02) (0.0000000000e+00 0.0000000000e+00 0.0000000000e+00))
6.9953693341e-02	((1.2481575618e+01 2.7527029988e+01 -6.1476538051e-19) (1.8435334716e-01 -5.2421521284e-02 1.9129373741e-21) (0.0000000000e+00 0.0000000000e+00 0.0000000000e+00)) ((-1.3763514994e+00 6.2407878091e-01 1.1387665611e+01) (2.6210760642e-03 9.2176673579e-03 -3.7574494682e-02) (0.0000000000e+00 0.0000000000e+00 0.0000000000e+00))
7.1577139179e-02	((1.2410888368e+01 2.7485005297e+01 -6.1085185299e-19) (1.8378209674e-01 -5.1964810141e-02 1.8987351362e-21) (0.0000000000e+00 0.0000000000e+00 0.0000000000e+00)) ((-1.3742502648e+00 6.2054441839e-01 1.1320692964e+01) (2.5982405070e-03 9.1891048369e-03 -3.7453740150e-02) (0.0000000000e+00 0.0000000000e+00 0.0000000000e+00))
7.3200257767e-02	((1.2343500013e+01 2.7446504408e+01 -6.0723966599e-19) (1.8323317958e-01 -5.1524881542e-02 1.8855358548e-21) (0.0000000000e+00 0.0000000000e+00 0.0000000000e+00)) ((-1.3723252204e+00 6.1717500064e-01 1.1257510666e+01) (2.5762440771e-03 9.1616589789e-03 -3.7335604305e-02) (0.0000000000e+00 0.0000000000e+00 0.0000000000e+00))
7.4822991238e-02	((1.2282448918e+01 2.7417704696e+01 -6.0352373897e-19) (1.8270483792e-01 -5.1101707394e-02 1.8726208607e-21) (0.0000000000e+00 0.0000000000e+00 0.0000000000e+00)) ((-1.3708852348e+00 6.1412244592e-01 1.1201686708e+01) (2.5550853697e-03 9.1352418960e-03 -3.7218965207e-02) (0.0000000000e+00 0.0000000000e+00 0.0000000000e+00))
7.6445244213e-02	((1.2221712752e+01 2.7386824988e+01 -6.0027371919e-19) (1.8219845691e-01 -5.0695822198e-02 1.8609524094e-21) (0.0000000000e+00 0.0000000000e+00 0.0000000000e+00)) ((-1.3693412494e+00 6.1108563762e-01 1.1145871603e+01) (2.5347911099e-03 9.1099228457e-03 -3.7105320133e-02) (0.0000000000e+00 0.0000000000e+00 0.0000000000e+00))
7.8066955517e-02	((1.2162860238e+01 2.7357955856e+01 -5.9708567731e-19) (1.8171463298e-01 -5.0306069229e-02 1.8499199304e-21) (0.0000000000e+00 0.0000000000e+00 0.0000000000e+00)) ((-1.3678977928e+00 6.0814301188e-01 1.1091920408e+01) (2.5153034615e-03 9.0857316492e-03 -3.6996178993e-02) (0.0000000000e+00 0.0000000000e+00 0.0000000000e+00))
7.9688091067e-02	((1.2106206506e+01 2.7331442969e+01 -5.9391835891e-19) (1.8125143783e-01 -4.9932242229e-02 1.8392167432e-21) (0.0000000000e+00 0.0000000000e+00 0.0000000000e+00)) ((-1.3665721485e+00 6.0531032529e-01 1.1040218751e+01) (2.4966121115e-03 9.0625718916e-03 -3.6891581255e-02) (0.0000000000e+00 0.0000000000e+00 0.0000000000e+00))
8.1308624069e-02	((1.2051015811e+01 2.7306399531e+01 -5.9083834949e-19) (1.8080685587e-01 -4.9573565672e-02 1.8290983565e-21) (0.0000000000e+00 0.0000000000e+00 0.0000000000e+00)) ((-1.3653199766e+00 6.0255079055e-01 1.0989917898e+01) (2.4786782836e-03 9.0403427934e-03 -3.6791511720e-02) (0.0000000000e+00 0.0000000000e+00 0.0000000000e+00))
8.2928530075e-02	((1.1997539586e+01 2.7283215913e+01 -5.8781295162e-19) (1.8037929911e-01 -4.9229256968e-02 1.8194508789e-21) (0.0000000000e+00 0.0000000000e+00 0.0000000000e+00)) ((-1.3641607956e+00 5.9987697929e-01 1.0941376422e+01) (2.4614628484e-03 9.0189649554e-03 -3.6695886386e-02) (0.0000000000e+00 0.0000000000e+00 0.0000000000e+00))
8.4547781993e-02	((1.1945658512e+01 2.7261985584e+01 -5.8484529475e-19) (1.7996724648e-01 -4.8898537752e-02 1.8103370984e-21) (0.0000000000e+00 0.0000000000e+00 0.0000000000e+00)) ((-1.3630992792e+00 5.9728292558e-01 1.0894421089e+01) (2.4449268876e-03 8.9983623239e-03 -3.6604587655e-02) (0.0000000000e+00 0.0000000000e+00 0.0000000000e+00))
8.6166362672e-02	((1.1894648583e+01 2.7241467654e+01 -5.8190638871e-19) (1.7956937988e-01 -4.8580185116e-02 1.8012654707e-21) (0.0000000000e+00 0.0000000000e+00 0.0000000000e+00)) ((-1.3620733827e+00 5.9473242917e-01 1.0848287081e+01) (2.4290092558e-03 8.9784689940e-03 -3.6517407813e-02) (0.0000000000e+00 0.0000000000e+00 0.0000000000e+00))
8.7784239691e-02	((1.1845024096e+01 2.7222496967e+01 -5.7900778736e-19) (1.7918465041e-01 -4.8273617924e-02 1.7925891175e-21) (0.0000000000e+00 0.0000000000e+00 0.0000000000e+00)) ((-1.3611248483e+00 5.9225120481e-01 1.0803550361e+01) (2.4136808962e-03 8.9592325204e-03 -3.6434180193e-02) (0.0000000000e+00 0.0000000000e+00 0.0000000000e+00))
8.9401395659e-02	((1.1796744049e+01 2.7205207071e+01 -5.7609910976e-19) (1.7881177133e-01 -4.7978027192e-02 1.7839129975e-21) (0.0000000000e+00 0.0000000000e+00 0.0000000000e+00)) ((-1.3602603535e+00 5.8983720246e-01 1.0760196418e+01) (2.3989013596e-03 8.9405885665e-03 -3.6354675109e-02) (0.0000000000e+00 0.0000000000e+00 0.0000000000e+00))
9.1017800391e-02	((1.1749420606e+01 2.7188907287e+01 -5.7320549010e-19) (1.7844979373e-01 -4.7692272974e-02 1.7753592755e-21) (0.0000000000e+00 0.0000000000e+00 0.0000000000e+00)) ((-1.3594453643e+00 5.8747103029e-01 1.0717793347e+01) (2.3846136487e-03 8.9224896864e-03 -3.6278771267e-02) (0.0000000000e+00 0.0000000000e+00 0.0000000000e+00))
9.2633433754e-02	((1.1703026999e+01 2.7173569716e+01 -5.7033609358e-19) (1.7809800617e-01 -4.7415706808e-02 1.7668945684e-21) (0.0000000000e+00 0.0000000000e+00 0.0000000000e+00)) ((-1.3586784858e+00 5.8515134996e-01 1.0676349384e+01) (2.3707853404e-03 8.9049003087e-03 -3.6206225787e-02) (0.0000000000e+00 0.0000000000e+00 0.0000000000e+00))
9.4248270390e-02	((1.1658257544e+01 2.7160234693e+01 -5.6748950978e-19) (1.7775620669e-01 -4.7147643065e-02 1.7586684073e-21) (0.0000000000e+00 0.0000000000e+00 0.0000000000e+00)) ((-1.3580117346e+00 5.8291287720e-01 1.0636677661e+01) (2.3573821533e-03 8.8878103343e-03 -3.6136848887e-02) (0.0000000000e+00 0.0000000000e+00 0.0000000000e+00))
9.5862282225e-02	((1.1614125901e+01 2.7147498359e+01 -5.6463654571e-19) (1.7742375800e-01 -4.6887270940e-02 1.7503025901e-21) (0.0000000000e+00 0.0000000000e+00 0.0000000000e+00)) ((-1.3573749179e+00 5.8070629505e-01 1.0597634285e+01) (2.3443635470e-03 8.8711879000e-03 -3.6070507322e-02) (0.0000000000e+00 0.0000000000e+00 0.0000000000e+00))
9.7475448784e-02	((1.1571243493e+01 2.7136151446e+01 -5.6184358538e-19) (1.7709979815e-01 -4.6634329730e-02 1.7421464712e-21) (0.0000000000e+00 0.0000000000e+00 0.0000000000e+00)) ((-1.3568075723e+00 5.7856217466e-01 1.0559933329e+01) (2.3317164865e-03 8.8549899073e-03 -3.6006847982e-02) (0.0000000000e+00 0.0000000000e+00 0.0000000000e+00))
9.9087744331e-02	((1.1529353852e+01 2.7125848210e+01 -5.5905690960e-19) (1.7678397932e-01 -4.6388111956e-02 1.7340507919e-21) (0.0000000000e+00 0.0000000000e+00 0.0000000000e+00)) ((-1.3562924105e+00 5.7646769260e-01 1.0523301421e+01) (2.3194055978e-03 8.8391989662e-03 -3.5945604725e-02) (0.0000000000e+00 0.0000000000e+00 0.0000000000e+00))
1.0069915335e-01	((1.1488436378e+01 2.7116665433e+01 -5.5632676866e-19) (1.7647496785e-01 -4.6148968966e-02 1.7260226060e-21) (0.0000000000e+00 0.0000000000e+00 0.0000000000e+00)) ((-1.3558332716e+00 5.7442181891e-01 1.0487750055e+01) (2.3074484483e-03 8.8237483923e-03 -3.5886163059e-02) (0.0000000000e+00 0.0000000000e+00 0.0000000000e+00))
1.0230965504e-01	((1.1448431529e+01 2.7108562392e+01 -5.5359147035e-19) (1.7617357316e-01 -4.5915774905e-02 1.7179381779e-21) (0.0000000000e+00 0.0000000000e+00 0.0000000000e+00)) ((-1.3554281196e+00 5.7242157646e-01 1.0453178834e+01) (2.2957887452e-03 8.8086786579e-03 -3.5828806175e-02) (0.0000000000e+00 0.0000000000e+00 0.0000000000e+00))
1.0391923896e-01	((1.1409391978e+01 2.7101449375e+01 -5.5090716519e-19) (1.7587897926e-01 -4.5688295147e-02 1.7100073468e-21) (0.0000000000e+00 0.0000000000e+00 0.0000000000e+00)) ((-1.3550724688e+00 5.7046959889e-01 1.0419660921e+01) (2.2844147574e-03 8.7939489632e-03 -3.5773220634e-02) (0.0000000000e+00 0.0000000000e+00 0.0000000000e+00))
1.0552787370e-01	((1.1371201717e+01 2.7095341005e+01 -5.4822891702e-19) (1.7559114249e-01 -4.5466031725e-02 1.7019821369e-21) (0.0000000000e+00 0.0000000000e+00 0.0000000000e+00)) ((-1.3547670502e+00 5.6856008585e-01 1.0387093104e+01) (2.2733015862e-03 8.7795571247e-03 -3.5719426699e-02) (0.0000000000e+00 0.0000000000e+00 0.0000000000e+00))
1.0713554861e-01	((1.1333936762e+01 2.7090203822e+01 -5.4559128595e-19) (1.7530979868e-01 -4.5248820592e-02 1.6941929845e-21) (0.0000000000e+00 0.0000000000e+00 0.0000000000e+00)) ((-1.3545101911e+00 5.6669683811e-01 1.0355536635e+01) (2.2624410296e-03 8.7654899342e-03 -3.5667275726e-02) (0.0000000000e+00 0.0000000000e+00 0.0000000000e+00))
1.0874224516e-01	((1.1297608245e+01 2.7086110925e+01 -5.4298267100e-19) (1.7503481635e-01 -4.5036452040e-02 1.6864294532e-21) (0.0000000000e+00 0.0000000000e+00 0.0000000000e+00)) ((-1.3543055462e+00 5.6488041223e-01 1.0325018113e+01) (2.2518226020e-03 8.7517408175e-03 -3.5616676309e-02) (0.0000000000e+00 0.0000000000e+00 0.0000000000e+00))
1.1034794208e-01	((1.1261796816e+01 2.7082385832e+01 -5.4044705423e-19) (1.7476591864e-01 -4.4828876851e-02 1.6789305780e-21) (0.0000000000e+00 0.0000000000e+00 0.0000000000e+00)) ((-1.3541192916e+00 5.6308984082e-01 1.0295063592e+01) (2.2414438425e-03 8.7382959321e-03 -3.5567583114e-02) (0.0000000000e+00 0.0000000000e+00 0.0000000000e+00))
1.1195262593e-01	((1.1226914074e+01 2.7079932529e+01 -5.3790536275e-19) (1.7450289256e-01 -4.4625950529e-02 1.6713995452e-21) (0.0000000000e+00 0.0000000000e+00 0.0000000000e+00)) ((-1.3539966265e+00 5.6134570371e-01 1.0266133853e+01) (2.2312975265e-03 8.7251446278e-03 -3.5519834040e-02) (0.0000000000e+00 0.0000000000e+00 0.0000000000e+00))
1.1355628055e-01	((1.1192771158e+01 2.7078073282e+01 -5.3541857619e-19) (1.7424558606e-01 -4.4427323537e-02 1.6640314769e-21) (0.0000000000e+00 0.0000000000e+00 0.0000000000e+00)) ((-1.3539036641e+00 5.5963855792e-01 1.0238033141e+01) (2.2213661769e-03 8.7122793029e-03 -3.5473435941e-02) (0.0000000000e+00 0.0000000000e+00 0.0000000000e+00))
1.1515889503e-01	((1.1159264139e+01 2.7076899395e+01 -5.3295060767e-19) (1.7399363957e-01 -4.4232974924e-02 1.6567171358e-21) (0.0000000000e+00 0.0000000000e+00 0.0000000000e+00)) ((-1.3538449697e+00 5.5796320693e-01 1.0210620987e+01) (2.2116487462e-03 8.6996819787e-03 -3.5428358501e-02) (0.0000000000e+00 0.0000000000e+00 0.0000000000e+00))
1.1676045841e-01	((1.1126462931e+01 2.7076371195e+01 -5.3055164328e-19) (1.7374702247e-01 -4.4042627036e-02 1.6496588190e-21) (0.0000000000e+00 0.0000000000e+00 0.0000000000e+00)) ((-1.3538185597e+00 5.5632314654e-01 1.0183983992e+01) (2.2021313518e-03 8.6873511236e-03 -3.5384476552e-02) (0.0000000000e+00 0.0000000000e+00 0.0000000000e+00))
1.1836095697e-01	((1.1094273126e+01 2.7076521718e+01 -5.2818714666e-19) (1.7350528808e-01 -4.3856194957e-02 1.6426555255e-21) (0.0000000000e+00 0.0000000000e+00 0.0000000000e+00)) ((-1.3538260859e+00 5.5471365632e-01 1.0158031959e+01) (2.1928097478e-03 8.6752644042e-03 -3.5341662546e-02) (0.0000000000e+00 0.0000000000e+00 0.0000000000e+00))
1.1996038231e-01	((1.1062654529e+01 2.7077243144e+01 -5.2584588950e-19) (1.7326825991e-01 -4.3673549158e-02 1.6359334858e-21) (0.0000000000e+00 0.0000000000e+00 0.0000000000e+00)) ((-1.3538621572e+00 5.5313272645e-01 1.0132694349e+01) (2.1836774579e-03 8.6634129956e-03 -3.5299737208e-02) (0.0000000000e+00 0.0000000000e+00 0.0000000000e+00))
1.2155872060e-01	((1.1031665075e+01 2.7078594946e+01 -5.2354840989e-19) (1.7303584949e-01 -4.3494559378e-02 1.6292349067e-21) (0.0000000000e+00 0.0000000000e+00 0.0000000000e+00)) ((-1.3539297473e+00 5.5158325377e-01 1.0108033455e+01) (2.1747279689e-03 8.6517924747e-03 -3.5258780912e-02) (0.0000000000e+00 0.0000000000e+00 0.0000000000e+00))
1.2315596604e-01	((1.1001173829e+01 2.7080317922e+01 -5.2131332722e-19) (1.7280822162e-01 -4.3318759660e-02 1.6227893064e-21) (0.0000000000e+00 0.0000000000e+00 0.0000000000e+00)) ((-1.3540158961e+00 5.5005869146e-01 1.0083902976e+01) (2.1659379830e-03 8.6404110812e-03 -3.5218758491e-02) (0.0000000000e+00 0.0000000000e+00 0.0000000000e+00))
1.2475211009e-01	((1.0971379615e+01 2.7082773849e+01 -5.1911861472e-19) (1.7258580872e-01 -4.3145912229e-02 1.6164082128e-21) (0.0000000000e+00 0.0000000000e+00 0.0000000000e+00)) ((-1.3541386925e+00 5.4856898074e-01 1.0060520752e+01) (2.1572956115e-03 8.6292904359e-03 -3.5179860244e-02) (0.0000000000e+00 0.0000000000e+00 0.0000000000e+00))
1.2634714689e-01	((1.0941988445e+01 2.7085611965e+01 -5.1693154880e-19) (1.7236807870e-01 -4.2975657188e-02 1.6100092804e-21) (0.0000000000e+00 0.0000000000e+00 0.0000000000e+00)) ((-1.3542805982e+00 5.4709942224e-01 1.0037559294e+01) (2.1487828594e-03 8.6184039349e-03 -3.5142136839e-02) (0.0000000000e+00 0.0000000000e+00 0.0000000000e+00))
1.2794107325e-01	((1.0913185559e+01 2.7088908293e+01 -5.1482887308e-19) (1.7215458607e-01 -4.2807953289e-02 1.6038944140e-21) (0.0000000000e+00 0.0000000000e+00 0.0000000000e+00)) ((-1.3544454147e+00 5.4565927794e-01 1.0015222403e+01) (2.1403976644e-03 8.6077293033e-03 -3.5105442720e-02) (0.0000000000e+00 0.0000000000e+00 0.0000000000e+00))
1.2953389145e-01	((1.0884851276e+01 2.7092652635e+01 -5.1273912636e-19) (1.7194564568e-01 -4.2642746896e-02 1.5977222008e-21) (0.0000000000e+00 0.0000000000e+00 0.0000000000e+00)) ((-1.3546326317e+00 5.4424256381e-01 9.9933885470e+00) (2.1321373448e-03 8.5972822840e-03 -3.5069908547e-02) (0.0000000000e+00 0.0000000000e+00 0.0000000000e+00))
1.3112559826e-01	((1.0856888429e+01 2.7096575711e+01 -5.1067880051e-19) (1.7174048127e-01 -4.2480755605e-02 1.5916419502e-21) (0.0000000000e+00 0.0000000000e+00 0.0000000000e+00)) ((-1.3548287856e+00 5.4284442147e-01 9.9719553609e+00) (2.1240377803e-03 8.5870240635e-03 -3.5035106615e-02) (0.0000000000e+00 0.0000000000e+00 0.0000000000e+00))
1.3271620416e-01	((1.0829431619e+01 2.7101110866e+01 -5.0859086202e-19) (1.7153886620e-01 -4.2321839361e-02 1.5855430100e-21) (0.0000000000e+00 0.0000000000e+00 0.0000000000e+00)) ((-1.3550555433e+00 5.4147158096e-01 9.9510432480e+00) (2.1160919680e-03 8.5769433099e-03 -3.5001046156e-02) (0.0000000000e+00 0.0000000000e+00 0.0000000000e+00))
1.3430570866e-01	((1.0802478581e+01 2.7106056889e+01 -5.0655762773e-19) (1.7134056020e-01 -4.2165736151e-02 1.5795831495e-21) (0.0000000000e+00 0.0000000000e+00 0.0000000000e+00)) ((-1.3553028444e+00 5.4012392903e-01 9.9306650229e+00) (2.1082868076e-03 8.5670280098e-03 -3.4967682698e-02) (0.0000000000e+00 0.0000000000e+00 0.0000000000e+00))
1.3589410852e-01	((1.0775854558e+01 2.7111120399e+01 -5.0456750235e-19) (1.7114579376e-01 -4.2012090256e-02 1.5737148145e-21) (0.0000000000e+00 0.0000000000e+00 0.0000000000e+00)) ((-1.3555560199e+00 5.3879272790e-01 9.9106286394e+00) (2.1006045128e-03 8.5572896880e-03 -3.4935078318e-02) (0.0000000000e+00 0.0000000000e+00 0.0000000000e+00))
1.3748140876e-01	((1.0749657271e+01 2.7116550985e+01 -5.0261023017e-19) (1.7095432700e-01 -4.1861046081e-02 1.5679283663e-21) (0.0000000000e+00 0.0000000000e+00 0.0000000000e+00)) ((-1.3558275492e+00 5.3748286355e-01 9.8910183035e+00) (2.0930523041e-03 8.5477163501e-03 -3.4903126443e-02) (0.0000000000e+00 0.0000000000e+00 0.0000000000e+00))