# Forces         
# CofR           : (0.0000000000e+00 0.0000000000e+00 0.0000000000e+00)
# Time           forces(pressure viscous porous) moment(pressure viscous porous)
1.5966117903e-03	((6.8972070205e+00 2.0668880553e+01 1.0548080138e-19) (3.5548509471e-01 -3.4975029598e-02 -1.9226898600e-21) (0.0000000000e+00 0.0000000000e+00 0.0000000000e+00)) ((-1.0334440277e+00 3.4486035102e-01 1.2390612364e+01) (1.7487514799e-03 1.7774254736e-02 -1.7536726927e-02) (0.0000000000e+00 0.0000000000e+00 0.0000000000e+00))
3.3143249386e-03	((6.4513911377e+00 1.8994385091e+01 8.3897708997e-20) (2.9358638060e-01 -2.7335434978e-02 -1.1750056480e-21) (0.0000000000e+00 0.0000000000e+00 0.0000000000e+00)) ((-9.4971925454e-01 3.2256955689e-01 1.1613238862e+01) (1.3667717489e-03 1.4679319030e-02 -1.2783100609e-02) (0.0000000000e+00 0.0000000000e+00 0.0000000000e+00))
5.0196624816e-03	((6.2318074320e+00 1.8043342064e+01 7.4338559339e-20) (2.6506826755e-01 -2.3220154564e-02 -9.0023925171e-22) (0.0000000000e+00 0.0000000000e+00 0.0000000000e+00)) ((-9.0216710320e-01 3.1159037160e-01 1.1201911256e+01) (1.1610077282e-03 1.3253413378e-02 -1.0036072056e-02) (0.0000000000e+00 0.0000000000e+00 0.0000000000e+00))
6.6984729858e-03	((6.0752749988e+00 1.7377079833e+01 6.7458024704e-20) (2.4924761691e-01 -2.0588220326e-02 -7.7170010571e-22) (0.0000000000e+00 0.0000000000e+00 0.0000000000e+00)) ((-8.6885399166e-01 3.0376374994e-01 1.0871932387e+01) (1.0294110163e-03 1.2462380846e-02 -8.2899890958e-03) (0.0000000000e+00 0.0000000000e+00 0.0000000000e+00))
8.3573590687e-03	((5.9520886741e+00 1.6878074321e+01 5.9386489952e-20) (2.3928403896e-01 -1.8843773493e-02 -6.8774963885e-22) (0.0000000000e+00 0.0000000000e+00 0.0000000000e+00)) ((-8.4390371604e-01 2.9760443371e-01 1.0574131246e+01) (9.4218867467e-04 1.1964201948e-02 -7.1504460170e-03) (0.0000000000e+00 0.0000000000e+00 0.0000000000e+00))
1.0002361902e-02	((5.8507553786e+00 1.6510183401e+01 5.0924163984e-20) (2.3239452185e-01 -1.7665996215e-02 -6.2391994798e-22) (0.0000000000e+00 0.0000000000e+00 0.0000000000e+00)) ((-8.2550917003e-01 2.9253776893e-01 1.0316187708e+01) (8.8329981073e-04 1.1619726092e-02 -6.3860886021e-03) (0.0000000000e+00 0.0000000000e+00 0.0000000000e+00))
1.1637125943e-02	((5.7607505137e+00 1.6232715431e+01 4.3698901682e-20) (2.2724639227e-01 -1.6847273731e-02 -5.7166919391e-22) (0.0000000000e+00 0.0000000000e+00 0.0000000000e+00)) ((-8.1163577154e-01 2.8803752568e-01 1.0094177107e+01) (8.4236368653e-04 1.1362319613e-02 -5.8547867342e-03) (0.0000000000e+00 0.0000000000e+00 0.0000000000e+00))
1.3264241685e-02	((5.6773325300e+00 1.6017432544e+01 3.7002521685e-20) (2.2316451278e-01 -1.6251212046e-02 -5.3416607116e-22) (0.0000000000e+00 0.0000000000e+00 0.0000000000e+00)) ((-8.0087162718e-01 2.8386662650e-01 9.9038361606e+00) (8.1256060231e-04 1.1158225639e-02 -5.4617453602e-03) (0.0000000000e+00 0.0000000000e+00 0.0000000000e+00))
1.4885960391e-02	((5.5991891666e+00 1.5846569469e+01 3.3582894030e-20) (2.1979208824e-01 -1.5797440761e-02 -5.2021993867e-22) (0.0000000000e+00 0.0000000000e+00 0.0000000000e+00)) ((-7.9232847347e-01 2.7995945833e-01 9.7405668454e+00) (7.8987203806e-04 1.0989604412e-02 -5.1516761267e-03) (0.0000000000e+00 0.0000000000e+00 0.0000000000e+00))
1.6504259702e-02	((5.5252201485e+00 1.5707631816e+01 3.4143673917e-20) (2.1690361025e-01 -1.5431119286e-02 -5.3189238633e-22) (0.0000000000e+00 0.0000000000e+00 0.0000000000e+00)) ((-7.8538159082e-01 2.7626100743e-01 9.5994228038e+00) (7.7155596430e-04 1.0845180512e-02 -4.8930492831e-03) (0.0000000000e+00 0.0000000000e+00 0.0000000000e+00))
1.8120696223e-02	((5.4552756433e+00 1.5590606962e+01 3.6834837812e-20) (2.1434821417e-01 -1.5118153146e-02 -5.6190239068e-22) (0.0000000000e+00 0.0000000000e+00 0.0000000000e+00)) ((-7.7953034808e-01 2.7276378216e-01 9.4754151801e+00) (7.5590765731e-04 1.0717410708e-02 -4.6724503434e-03) (0.0000000000e+00 0.0000000000e+00 0.0000000000e+00))
1.9736465228e-02	((5.3882327957e+00 1.5486364697e+01 4.0540442399e-20) (2.1202274519e-01 -1.4839453616e-02 -5.9997200036e-22) (0.0000000000e+00 0.0000000000e+00 0.0000000000e+00)) ((-7.7431823486e-01 2.6941163979e-01 9.3607970627e+00) (7.4197268082e-04 1.0601137260e-02 -4.4844324688e-03) (0.0000000000e+00 0.0000000000e+00 0.0000000000e+00))
2.1352401581e-02	((5.3238454772e+00 1.5392260500e+01 4.4072870568e-20) (2.0985732829e-01 -1.4585727799e-02 -6.3682502612e-22) (0.0000000000e+00 0.0000000000e+00 0.0000000000e+00)) ((-7.6961302498e-01 2.6619227386e-01 9.2543350471e+00) (7.2928638993e-04 1.0492866414e-02 -4.3260250219e-03) (0.0000000000e+00 0.0000000000e+00 0.0000000000e+00))
2.2969116889e-02	((5.2627471686e+00 1.5309776210e+01 4.7046216988e-20) (2.0779986750e-01 -1.4346430783e-02 -6.6725852922e-22) (0.0000000000e+00 0.0000000000e+00 0.0000000000e+00)) ((-7.6548881048e-01 2.6313735843e-01 9.1566347805e+00) (7.1732153915e-04 1.0389993375e-02 -4.1928303029e-03) (0.0000000000e+00 0.0000000000e+00 0.0000000000e+00))
2.4587054262e-02	((5.2049862182e+00 1.5237557232e+01 5.0690988195e-20) (2.0581505309e-01 -1.4113774069e-02 -6.8971362621e-22) (0.0000000000e+00 0.0000000000e+00 0.0000000000e+00)) ((-7.6187786162e-01 2.6024931091e-01 9.0666081168e+00) (7.0568870343e-04 1.0290752655e-02 -4.0806269788e-03) (0.0000000000e+00 0.0000000000e+00 0.0000000000e+00))
2.6206525401e-02	((5.1505007273e+00 1.5174228864e+01 5.4735030738e-20) (2.0388791643e-01 -1.3884728444e-02 -7.0600539295e-22) (0.0000000000e+00 0.0000000000e+00 0.0000000000e+00)) ((-7.5871144322e-01 2.5752503637e-01 8.9830679152e+00) (6.9423642218e-04 1.0194395821e-02 -3.9828594986e-03) (0.0000000000e+00 0.0000000000e+00 0.0000000000e+00))
2.7827761000e-02	((5.0994160923e+00 1.5119114768e+01 5.9362669521e-20) (2.0200460599e-01 -1.3655049970e-02 -7.1893581830e-22) (0.0000000000e+00 0.0000000000e+00 0.0000000000e+00)) ((-7.5595573841e-01 2.5497080462e-01 8.9060548533e+00) (6.8275249850e-04 1.0100230299e-02 -3.8934421550e-03) (0.0000000000e+00 0.0000000000e+00 0.0000000000e+00))
2.9450929318e-02	((5.0514918990e+00 1.5070991134e+01 6.4731220365e-20) (2.0016303694e-01 -1.3423263096e-02 -7.2952306629e-22) (0.0000000000e+00 0.0000000000e+00 0.0000000000e+00)) ((-7.5354955668e-01 2.5257459495e-01 8.8343517709e+00) (6.7116315482e-04 1.0008151847e-02 -3.8077039157e-03) (0.0000000000e+00 0.0000000000e+00 0.0000000000e+00))
3.1076158514e-02	((5.0065597735e+00 1.5027910598e+01 7.0392345059e-20) (1.9836747313e-01 -1.3191010898e-02 -7.3684934071e-22) (0.0000000000e+00 0.0000000000e+00 0.0000000000e+00)) ((-7.5139552988e-01 2.5032798868e-01 8.7665993527e+00) (6.5955054490e-04 9.9183736565e-03 -3.7224429347e-03) (0.0000000000e+00 0.0000000000e+00 0.0000000000e+00))
3.2703544800e-02	((4.9639351837e+00 1.4988753930e+01 7.6056403898e-20) (1.9662627512e-01 -1.2958173923e-02 -7.4079267425e-22) (0.0000000000e+00 0.0000000000e+00 0.0000000000e+00)) ((-7.4943769650e-01 2.4819675919e-01 8.7014776497e+00) (6.4790869613e-04 9.8313137561e-03 -3.6377039197e-03) (0.0000000000e+00 0.0000000000e+00 0.0000000000e+00))
3.4333160018e-02	((4.9235061842e+00 1.4951473935e+01 8.1480234458e-20) (1.9494707483e-01 -1.2725335645e-02 -7.4187183001e-22) (0.0000000000e+00 0.0000000000e+00 0.0000000000e+00)) ((-7.4757369674e-01 2.4617530921e-01 8.6377724587e+00) (6.3626678227e-04 9.7473537417e-03 -3.5550307320e-03) (0.0000000000e+00 0.0000000000e+00 0.0000000000e+00))
3.5965065093e-02	((4.8845329492e+00 1.4915154922e+01 8.6209371173e-20) (1.9334108880e-01 -1.2494480138e-02 -7.4249646344e-22) (0.0000000000e+00 0.0000000000e+00 0.0000000000e+00)) ((-7.4575774609e-01 2.4422664746e-01 8.5744284129e+00) (6.2472400689e-04 9.6670544401e-03 -3.4770494559e-03) (0.0000000000e+00 0.0000000000e+00 0.0000000000e+00))
3.7599327412e-02	((4.8468150949e+00 1.4879262508e+01 9.0358113169e-20) (1.9181194787e-01 -1.2268937088e-02 -7.4505888313e-22) (0.0000000000e+00 0.0000000000e+00 0.0000000000e+00)) ((-7.4396312542e-01 2.4234075475e-01 8.5112205768e+00) (6.1344685440e-04 9.5905973934e-03 -3.4057682558e-03) (0.0000000000e+00 0.0000000000e+00 0.0000000000e+00))
3.9236020185e-02	((4.8100252066e+00 1.4841881666e+01 9.3900288245e-20) (1.9035785391e-01 -1.2049916557e-02 -7.5125776678e-22) (0.0000000000e+00 0.0000000000e+00 0.0000000000e+00)) ((-7.4209408332e-01 2.4050126033e-01 8.4471164471e+00) (6.0249582786e-04 9.5178926953e-03 -3.3426393420e-03) (0.0000000000e+00 0.0000000000e+00 0.0000000000e+00))
4.0875224027e-02	((4.7739608370e+00 1.4802467376e+01 9.7012454802e-20) (1.8896765283e-01 -1.1837986616e-02 -7.6007989364e-22) (0.0000000000e+00 0.0000000000e+00 0.0000000000e+00)) ((-7.4012336881e-01 2.3869804185e-01 8.3817371460e+00) (5.9189933082e-04 9.4483826417e-03 -3.2880653589e-03) (0.0000000000e+00 0.0000000000e+00 0.0000000000e+00))
4.2517022633e-02	((4.7386359149e+00 1.4759778732e+01 9.9397711749e-20) (1.8763503234e-01 -1.1638530340e-02 -7.6951631976e-22) (0.0000000000e+00 0.0000000000e+00 0.0000000000e+00)) ((-7.3798893660e-01 2.3693179574e-01 8.3148606510e+00) (5.8192651700e-04 9.3817516172e-03 -3.2410577207e-03) (0.0000000000e+00 0.0000000000e+00 0.0000000000e+00))
4.4161499168e-02	((4.7039476901e+00 1.4714245585e+01 1.0135090189e-19) (1.8635887753e-01 -1.1450581864e-02 -7.7850558942e-22) (0.0000000000e+00 0.0000000000e+00 0.0000000000e+00)) ((-7.3571227926e-01 2.3519738451e-01 8.2467161696e+00) (5.7252909320e-04 9.3179438764e-03 -3.2028703234e-03) (0.0000000000e+00 0.0000000000e+00 0.0000000000e+00))
4.5808769811e-02	((4.6697964783e+00 1.4665445582e+01 1.0316521487e-19) (1.8513504405e-01 -1.1275592968e-02 -7.8639060368e-22) (0.0000000000e+00 0.0000000000e+00 0.0000000000e+00)) ((-7.3327227912e-01 2.3348982391e-01 8.1774429245e+00) (5.6377964839e-04 9.2567522024e-03 -3.1725263573e-03) (0.0000000000e+00 0.0000000000e+00 0.0000000000e+00))
4.7458968587e-02	((4.6359284768e+00 1.4613791064e+01 1.0462324826e-19) (1.8396073726e-01 -1.1113672862e-02 -7.9276809956e-22) (0.0000000000e+00 0.0000000000e+00 0.0000000000e+00)) ((-7.3068955322e-01 2.3179642384e-01 8.1069722439e+00) (5.5568364310e-04 9.1980368628e-03 -3.1501128910e-03) (0.0000000000e+00 0.0000000000e+00 0.0000000000e+00))
4.9112220659e-02	((4.6023302880e+00 1.4560318108e+01 1.0584889538e-19) (1.8282876708e-01 -1.0962605208e-02 -7.9600452900e-22) (0.0000000000e+00 0.0000000000e+00 0.0000000000e+00)) ((-7.2801590539e-01 2.3011651440e-01 8.0362123392e+00) (5.4813026040e-04 9.1414383538e-03 -3.1350474473e-03) (0.0000000000e+00 0.0000000000e+00 0.0000000000e+00))
5.0768639918e-02	((4.5690591421e+00 1.4505269232e+01 1.0704875732e-19) (1.8173625384e-01 -1.0822904394e-02 -7.9742088263e-22) (0.0000000000e+00 0.0000000000e+00 0.0000000000e+00)) ((-7.2526346161e-01 2.2845295711e-01 7.9655443772e+00) (5.4114521968e-04 9.0868126922e-03 -3.1277872171e-03) (0.0000000000e+00 0.0000000000e+00 0.0000000000e+00))
5.2428333401e-02	((4.5360654023e+00 1.4449474071e+01 1.0816822088e-19) (1.8068154221e-01 -1.0690730099e-02 -7.9604386433e-22) (0.0000000000e+00 0.0000000000e+00 0.0000000000e+00)) ((-7.2247370356e-01 2.2680327012e-01 7.8951996789e+00) (5.3453650493e-04 9.0340771107e-03 -3.1290794738e-03) (0.0000000000e+00 0.0000000000e+00 0.0000000000e+00))
5.4091392727e-02	((4.5034291615e+00 1.4393459384e+01 1.0933849650e-19) (1.7965797774e-01 -1.0565507461e-02 -7.9350860999e-22) (0.0000000000e+00 0.0000000000e+00 0.0000000000e+00)) ((-7.1967296922e-01 2.2517145807e-01 7.8261127102e+00) (5.2827537304e-04 8.9828988870e-03 -3.1365511550e-03) (0.0000000000e+00 0.0000000000e+00 0.0000000000e+00))
5.5757893859e-02	((4.4712045501e+00 1.4337507590e+01 1.1041443464e-19) (1.7866268297e-01 -1.0445871536e-02 -7.9057828048e-22) (0.0000000000e+00 0.0000000000e+00 0.0000000000e+00)) ((-7.1687537950e-01 2.2356022751e-01 7.7583091967e+00) (5.2229357679e-04 8.9331341487e-03 -3.1493776290e-03) (0.0000000000e+00 0.0000000000e+00 0.0000000000e+00))
5.7427917641e-02	((4.4394459216e+00 1.4281989368e+01 1.1141675711e-19) (1.7769488938e-01 -1.0330495227e-02 -7.8819729494e-22) (0.0000000000e+00 0.0000000000e+00 0.0000000000e+00)) ((-7.1409946842e-01 2.2197229608e-01 7.6920637968e+00) (5.1652476136e-04 8.8847444692e-03 -3.1670468793e-03) (0.0000000000e+00 0.0000000000e+00 0.0000000000e+00))
5.9101549114e-02	((4.4081836445e+00 1.4227240151e+01 1.1229085207e-19) (1.7675112867e-01 -1.0219145565e-02 -7.8625693127e-22) (0.0000000000e+00 0.0000000000e+00 0.0000000000e+00)) ((-7.1136200757e-01 2.2040918223e-01 7.6275644224e+00) (5.1095727823e-04 8.8375564336e-03 -3.1879828087e-03) (0.0000000000e+00 0.0000000000e+00 0.0000000000e+00))
6.0778856525e-02	((4.3774250295e+00 1.4173334683e+01 1.1303339845e-19) (1.7583095458e-01 -1.0110986812e-02 -7.8489174110e-22) (0.0000000000e+00 0.0000000000e+00 0.0000000000e+00)) ((-7.0866673413e-01 2.1887125148e-01 7.5648375474e+00) (5.0554934059e-04 8.7915477290e-03 -3.2115329957e-03) (0.0000000000e+00 0.0000000000e+00 0.0000000000e+00))
6.2459895703e-02	((4.3472183459e+00 1.4120295227e+01 1.1363940348e-19) (1.7493298404e-01 -1.0005571715e-02 -7.8361590709e-22) (0.0000000000e+00 0.0000000000e+00 0.0000000000e+00)) ((-7.0601476137e-01 2.1736091730e-01 7.5039258274e+00) (5.0027858577e-04 8.7466492020e-03 -3.2372032621e-03) (0.0000000000e+00 0.0000000000e+00 0.0000000000e+00))
6.4144697148e-02	((4.3175428424e+00 1.4068647173e+01 1.1407189702e-19) (1.7405427074e-01 -9.9014988431e-03 -7.8294321226e-22) (0.0000000000e+00 0.0000000000e+00 0.0000000000e+00)) ((-7.0343235864e-01 2.1587714212e-01 7.4449057453e+00) (4.9507494216e-04 8.7027135372e-03 -3.2639573733e-03) (0.0000000000e+00 0.0000000000e+00 0.0000000000e+00))
6.5833271848e-02	((4.2885164730e+00 1.4018282147e+01 1.1439404428e-19) (1.7319568092e-01 -9.7993602042e-03 -7.8264156375e-22) (0.0000000000e+00 0.0000000000e+00 0.0000000000e+00)) ((-7.0091410737e-01 2.1442582365e-01 7.3877386853e+00) (4.8996801021e-04 8.6597840462e-03 -3.2916044516e-03) (0.0000000000e+00 0.0000000000e+00 0.0000000000e+00))
6.7525618031e-02	((4.2600663220e+00 1.3969228634e+01 1.1446050744e-19) (1.7235607568e-01 -9.6990699810e-03 -7.8200453776e-22) (0.0000000000e+00 0.0000000000e+00 0.0000000000e+00)) ((-6.9846143172e-01 2.1300331610e-01 7.3325079871e+00) (4.8495349905e-04 8.6178037841e-03 -3.3195335199e-03) (0.0000000000e+00 0.0000000000e+00 0.0000000000e+00))
6.9221710478e-02	((4.2323163976e+00 1.3921604191e+01 1.1449414489e-19) (1.7153377932e-01 -9.6009777973e-03 -7.8182169291e-22) (0.0000000000e+00 0.0000000000e+00 0.0000000000e+00)) ((-6.9608020956e-01 2.1161581988e-01 7.2790539624e+00) (4.8004888986e-04 8.5766889659e-03 -3.3471227358e-03) (0.0000000000e+00 0.0000000000e+00 0.0000000000e+00))
7.0921517768e-02	((4.2052850129e+00 1.3875879628e+01 1.1441681681e-19) (1.7073013501e-01 -9.5044693437e-03 -7.8190883326e-22) (0.0000000000e+00 0.0000000000e+00 0.0000000000e+00)) ((-6.9379398139e-01 2.1026425065e-01 7.2276256454e+00) (4.7522346719e-04 8.5365067503e-03 -3.3743546620e-03) (0.0000000000e+00 0.0000000000e+00 0.0000000000e+00))
7.2625004605e-02	((4.1789131969e+00 1.3831686194e+01 1.1425943401e-19) (1.6994317118e-01 -9.4096665305e-03 -7.8230382115e-22) (0.0000000000e+00 0.0000000000e+00 0.0000000000e+00)) ((-6.9158430970e-01 2.0894565984e-01 7.1778646442e+00) (4.7048332652e-04 8.4971585588e-03 -3.4009164030e-03) (0.0000000000e+00 0.0000000000e+00 0.0000000000e+00))
7.4332126041e-02	((4.1531973324e+00 1.3788865311e+01 1.1408210199e-19) (1.6917307455e-01 -9.3161660078e-03 -7.8287630466e-22) (0.0000000000e+00 0.0000000000e+00 0.0000000000e+00)) ((-6.8944326554e-01 2.0765986662e-01 7.1296666901e+00) (4.6580830039e-04 8.4586537275e-03 -3.4268715756e-03) (0.0000000000e+00 0.0000000000e+00 0.0000000000e+00))
7.6042831377e-02	((4.1281872854e+00 1.3747795206e+01 1.1384689694e-19) (1.6841993951e-01 -9.2238690547e-03 -7.8363973997e-22) (0.0000000000e+00 0.0000000000e+00 0.0000000000e+00)) ((-6.8738976030e-01 2.0640936427e-01 7.0831693455e+00) (4.6119345273e-04 8.4209969754e-03 -3.4520839708e-03) (0.0000000000e+00 0.0000000000e+00 0.0000000000e+00))
7.7757073988e-02	((4.1038144711e+00 1.3708142828e+01 1.1358314924e-19) (1.6768318512e-01 -9.1330698048e-03 -7.8485694148e-22) (0.0000000000e+00 0.0000000000e+00 0.0000000000e+00)) ((-6.8540714140e-01 2.0519072355e-01 7.0381204564e+00) (4.5665349024e-04 8.3841592559e-03 -3.4763333033e-03) (0.0000000000e+00 0.0000000000e+00 0.0000000000e+00))
7.9474800615e-02	((4.0801148043e+00 1.3669823979e+01 1.1333017438e-19) (1.6696289029e-01 -9.0437843953e-03 -7.8659738085e-22) (0.0000000000e+00 0.0000000000e+00 0.0000000000e+00)) ((-6.8349119895e-01 2.0400574021e-01 6.9944117009e+00) (4.5218921977e-04 8.3481445145e-03 -3.4996105273e-03) (0.0000000000e+00 0.0000000000e+00 0.0000000000e+00))
8.1195947941e-02	((4.0568549877e+00 1.3633194216e+01 1.1302424755e-19) (1.6625918686e-01 -8.9557841646e-03 -7.8809033533e-22) (0.0000000000e+00 0.0000000000e+00 0.0000000000e+00)) ((-6.8165971078e-01 2.0284274939e-01 6.9520047460e+00) (4.4778920823e-04 8.3129593432e-03 -3.5219502621e-03) (0.0000000000e+00 0.0000000000e+00 0.0000000000e+00))
8.2920457492e-02	((4.0343081030e+00 1.3597511829e+01 1.1268759153e-19) (1.6557203114e-01 -8.8685671805e-03 -7.9005438301e-22) (0.0000000000e+00 0.0000000000e+00 0.0000000000e+00)) ((-6.7987559145e-01 2.0171540515e-01 6.9107620452e+00) (4.4342835902e-04 8.2786015570e-03 -3.5434898776e-03) (0.0000000000e+00 0.0000000000e+00 0.0000000000e+00))
8.4648278282e-02	((4.0123167039e+00 1.3563168624e+01 1.1231919777e-19) (1.6490112239e-01 -8.7828839619e-03 -7.9222896379e-22) (0.0000000000e+00 0.0000000000e+00 0.0000000000e+00)) ((-6.7815843120e-01 2.0061583519e-01 6.8706389062e+00) (4.3914419810e-04 8.2450561197e-03 -3.5640148530e-03) (0.0000000000e+00 0.0000000000e+00 0.0000000000e+00))
8.6379350050e-02	((3.9908767365e+00 1.3529857344e+01 1.1199329883e-19) (1.6424648583e-01 -8.6983285009e-03 -7.9471864498e-22) (0.0000000000e+00 0.0000000000e+00 0.0000000000e+00)) ((-6.7649286722e-01 1.9954383682e-01 6.8316275229e+00) (4.3491642504e-04 8.2123242917e-03 -3.5835960690e-03) (0.0000000000e+00 0.0000000000e+00 0.0000000000e+00))
8.8113616718e-02	((3.9699039408e+00 1.3497792726e+01 1.1161658635e-19) (1.6360766220e-01 -8.6147336778e-03 -7.9741445276e-22) (0.0000000000e+00 0.0000000000e+00 0.0000000000e+00)) ((-6.7488963628e-01 1.9849519704e-01 6.7936871236e+00) (4.3073668389e-04 8.1803831099e-03 -3.6021210639e-03) (0.0000000000e+00 0.0000000000e+00 0.0000000000e+00))
8.9851022202e-02	((3.9495164599e+00 1.3466555625e+01 1.1128592972e-19) (1.6298439155e-01 -8.5321423389e-03 -8.0029104545e-22) (0.0000000000e+00 0.0000000000e+00 0.0000000000e+00)) ((-6.7332778124e-01 1.9747582300e-01 6.7567633977e+00) (4.2660711695e-04 8.1492195773e-03 -3.6197677669e-03) (0.0000000000e+00 0.0000000000e+00 0.0000000000e+00))
9.1591511317e-02	((3.9296116892e+00 1.3436452034e+01 1.1092898355e-19) (1.6237714063e-01 -8.4504163600e-03 -8.0274967561e-22) (0.0000000000e+00 0.0000000000e+00 0.0000000000e+00)) ((-6.7182260169e-01 1.9648058446e-01 6.7207259209e+00) (4.2252081800e-04 8.1188570315e-03 -3.6367303313e-03) (0.0000000000e+00 0.0000000000e+00 0.0000000000e+00))
9.3335032377e-02	((3.9102032152e+00 1.3407191907e+01 1.1059566922e-19) (1.6178541411e-01 -8.3697374171e-03 -8.0529647928e-22) (0.0000000000e+00 0.0000000000e+00 0.0000000000e+00)) ((-6.7035959536e-01 1.9551016076e-01 6.6856298716e+00) (4.1848687085e-04 8.0892707057e-03 -3.6528979157e-03) (0.0000000000e+00 0.0000000000e+00 0.0000000000e+00))
9.5081544235e-02	((3.8912386420e+00 1.3378988486e+01 1.1024873882e-19) (1.6120898743e-01 -8.2901985217e-03 -8.0795769848e-22) (0.0000000000e+00 0.0000000000e+00 0.0000000000e+00)) ((-6.6894942432e-01 1.9456193210e-01 6.6514197205e+00) (4.1450992609e-04 8.0604493716e-03 -3.6683427373e-03) (0.0000000000e+00 0.0000000000e+00 0.0000000000e+00))
9.6831000775e-02	((3.8727035396e+00 1.3351505681e+01 1.0992230732e-19) (1.6064757823e-01 -8.2119062858e-03 -8.1053772891e-22) (0.0000000000e+00 0.0000000000e+00 0.0000000000e+00)) ((-6.6757528407e-01 1.9363517698e-01 6.6179825107e+00) (4.1059531429e-04 8.0323789114e-03 -3.6831071646e-03) (0.0000000000e+00 0.0000000000e+00 0.0000000000e+00))
9.8583363992e-02	((3.8546007896e+00 1.3324781646e+01 1.0960436379e-19) (1.6010088133e-01 -8.1349157420e-03 -8.1299382157e-22) (0.0000000000e+00 0.0000000000e+00 0.0000000000e+00)) ((-6.6623908232e-01 1.9273003948e-01 6.5853720620e+00) (4.0674578710e-04 8.0050440667e-03 -3.6972816703e-03) (0.0000000000e+00 0.0000000000e+00 0.0000000000e+00))
1.0033859444e-01	((3.8368842200e+00 1.3298795138e+01 1.0929275035e-19) (1.5956852790e-01 -8.0593522458e-03 -8.1526046083e-22) (0.0000000000e+00 0.0000000000e+00 0.0000000000e+00)) ((-6.6493975691e-01 1.9184421100e-01 6.5535081209e+00) (4.0296761229e-04 7.9784263952e-03 -3.7109104516e-03) (0.0000000000e+00 0.0000000000e+00 0.0000000000e+00))
1.0209665745e-01	((3.8195345502e+00 1.3273553892e+01 1.0898719386e-19) (1.5905022228e-01 -7.9853393414e-03 -8.1732174079e-22) (0.0000000000e+00 0.0000000000e+00 0.0000000000e+00)) ((-6.6367769461e-01 1.9097672751e-01 6.5223824516e+00) (3.9926696707e-04 7.9525111141e-03 -3.7240243368e-03) (0.0000000000e+00 0.0000000000e+00 0.0000000000e+00))
1.0385751784e-01	((3.8025507892e+00 1.3248854081e+01 1.0866331500e-19) (1.5854552132e-01 -7.9130624993e-03 -8.1917799423e-22) (0.0000000000e+00 0.0000000000e+00 0.0000000000e+00)) ((-6.6244270407e-01 1.9012753946e-01 6.4919603359e+00) (3.9565312496e-04 7.9272760661e-03 -3.7367182574e-03) (0.0000000000e+00 0.0000000000e+00 0.0000000000e+00))
1.0562114529e-01	((3.7858777745e+00 1.3224896358e+01 1.0834358112e-19) (1.5805398989e-01 -7.8414866390e-03 -8.2170408056e-22) (0.0000000000e+00 0.0000000000e+00 0.0000000000e+00)) ((-6.6124481790e-01 1.8929388872e-01 6.4621906159e+00) (3.9207433195e-04 7.9026994944e-03 -3.7493173079e-03) (0.0000000000e+00 0.0000000000e+00 0.0000000000e+00))
1.0738750639e-01	((3.7695253793e+00 1.3201529818e+01 1.0801849295e-19) (1.5757514368e-01 -7.7717272670e-03 -8.2392423630e-22) (0.0000000000e+00 0.0000000000e+00 0.0000000000e+00)) ((-6.6007649089e-01 1.8847626897e-01 6.4330714081e+00) (3.8858636335e-04 7.8787571839e-03 -3.7615916199e-03) (0.0000000000e+00 0.0000000000e+00 0.0000000000e+00))
1.0915657625e-01	((3.7534727118e+00 1.3178731768e+01 1.0769189434e-19) (1.5710846574e-01 -7.7036408702e-03 -8.2597143700e-22) (0.0000000000e+00 0.0000000000e+00 0.0000000000e+00)) ((-6.5893658838e-01 1.8767363559e-01 6.4045713176e+00) (3.8518204351e-04 7.8554232870e-03 -3.7736326003e-03) (0.0000000000e+00 0.0000000000e+00 0.0000000000e+00))
1.1092832513e-01	((3.7377356796e+00 1.3156587456e+01 1.0735456054e-19) (1.5665353157e-01 -7.6371801654e-03 -8.2790418903e-22) (0.0000000000e+00 0.0000000000e+00 0.0000000000e+00)) ((-6.5782937278e-01 1.8688678398e-01 6.3767399424e+00) (3.8185900827e-04 7.8326765787e-03 -3.7854712195e-03) (0.0000000000e+00 0.0000000000e+00 0.0000000000e+00))
1.1270272651e-01	((3.7222865664e+00 1.3135110305e+01 1.0701145852e-19) (1.5620991945e-01 -7.5723622781e-03 -8.2977680654e-22) (0.0000000000e+00 0.0000000000e+00 0.0000000000e+00)) ((-6.5675551526e-01 1.8611432832e-01 6.3495359252e+00) (3.7861811391e-04 7.8104959726e-03 -3.7971088476e-03) (0.0000000000e+00 0.0000000000e+00 0.0000000000e+00))
1.1447975987e-01	((3.7071449879e+00 1.3114315780e+01 1.0666072505e-19) (1.5577715548e-01 -7.5090952196e-03 -8.3157641710e-22) (0.0000000000e+00 0.0000000000e+00 0.0000000000e+00)) ((-6.5571578901e-01 1.8535724939e-01 6.3229992461e+00) (3.7545476098e-04 7.7888577739e-03 -3.8085665417e-03) (0.0000000000e+00 0.0000000000e+00 0.0000000000e+00))
1.1625939986e-01	((3.6923040141e+00 1.3094218284e+01 1.0630640385e-19) (1.5535482717e-01 -7.4472909505e-03 -8.3333773928e-22) (0.0000000000e+00 0.0000000000e+00 0.0000000000e+00)) ((-6.5471091419e-01 1.8461520070e-01 6.2971125519e+00) (3.7236454752e-04 7.7677413583e-03 -3.8198749452e-03) (0.0000000000e+00 0.0000000000e+00 0.0000000000e+00))
1.1804162261e-01	((3.6777525532e+00 1.3074857188e+01 1.0593609080e-19) (1.5494256071e-01 -7.3868527033e-03 -8.3504508364e-22) (0.0000000000e+00 0.0000000000e+00 0.0000000000e+00)) ((-6.5374285938e-01 1.8388762766e-01 6.2718795547e+00) (3.6934263516e-04 7.7471280353e-03 -3.8310465372e-03) (0.0000000000e+00 0.0000000000e+00 0.0000000000e+00))
1.1982640578e-01	((3.6634937222e+00 1.3056204229e+01 1.0556646072e-19) (1.5454004678e-01 -7.3277504276e-03 -8.3671571775e-22) (0.0000000000e+00 0.0000000000e+00 0.0000000000e+00)) ((-6.5281021146e-01 1.8317468611e-01 6.2472850045e+00) (3.6638752138e-04 7.7270023392e-03 -3.8420740808e-03) (0.0000000000e+00 0.0000000000e+00 0.0000000000e+00))
1.2161372303e-01	((3.6495122282e+00 1.3038229761e+01 1.0519573795e-19) (1.5414699855e-01 -7.2699203189e-03 -8.3836387117e-22) (0.0000000000e+00 0.0000000000e+00 0.0000000000e+00)) ((-6.5191148804e-01 1.8247561141e-01 6.2232844198e+00) (3.6349601595e-04 7.7073499276e-03 -3.8529364489e-03) (0.0000000000e+00 0.0000000000e+00 0.0000000000e+00))
1.2340355325e-01	((3.6358471557e+00 1.3021210262e+01 1.0480704993e-19) (1.5376314180e-01 -7.2133156091e-03 -8.4001953377e-22) (0.0000000000e+00 0.0000000000e+00 0.0000000000e+00)) ((-6.5106051308e-01 1.8179235779e-01 6.2000651664e+00) (3.6066578046e-04 7.6881570902e-03 -3.8635938131e-03) (0.0000000000e+00 0.0000000000e+00 0.0000000000e+00))
1.2519586667e-01	((3.6224321036e+00 1.3004760151e+01 1.0442443168e-19) (1.5338820333e-01 -7.1578440117e-03 -8.4166080815e-22) (0.0000000000e+00 0.0000000000e+00 0.0000000000e+00)) ((-6.5023800757e-01 1.8112160518e-01 6.1773345826e+00) (3.5789220058e-04 7.6694101664e-03 -3.8740537588e-03) (0.0000000000e+00 0.0000000000e+00 0.0000000000e+00))
1.2699063689e-01	((3.6093126102e+00 1.2989179769e+01 1.0403186287e-19) (1.5302193880e-01 -7.1034549566e-03 -8.4329219164e-22) (0.0000000000e+00 0.0000000000e+00 0.0000000000e+00)) ((-6.4945898846e-01 1.8046563051e-01 6.1553064724e+00) (3.5517274783e-04 7.6510969402e-03 -3.8843139356e-03) (0.0000000000e+00 0.0000000000e+00 0.0000000000e+00))
1.2878783434e-01	((3.5964374346e+00 1.2974173257e+01 1.0364047253e-19) (1.5266412884e-01 -7.0500984422e-03 -8.4493866157e-22) (0.0000000000e+00 0.0000000000e+00 0.0000000000e+00)) ((-6.4870866285e-01 1.7982187173e-01 6.1337575090e+00) (3.5250492211e-04 7.6332064422e-03 -3.8943602741e-03) (0.0000000000e+00 0.0000000000e+00 0.0000000000e+00))
1.3058744423e-01	((3.5838434802e+00 1.2959987798e+01 1.0324320543e-19) (1.5231458437e-01 -6.9977304938e-03 -8.4657619545e-22) (0.0000000000e+00 0.0000000000e+00 0.0000000000e+00)) ((-6.4799938988e-01 1.7919217401e-01 6.1128566920e+00) (3.4988652469e-04 7.6157292186e-03 -3.9041812321e-03) (0.0000000000e+00 0.0000000000e+00 0.0000000000e+00))
1.3238942219e-01	((3.5715053646e+00 1.2946494975e+01 1.0284380755e-19) (1.5197311433e-01 -6.9463301769e-03 -8.4822820071e-22) (0.0000000000e+00 0.0000000000e+00 0.0000000000e+00)) ((-6.4732474877e-01 1.7857526823e-01 6.0925107478e+00) (3.4731650885e-04 7.5986557166e-03 -3.9137764575e-03) (0.0000000000e+00 0.0000000000e+00 0.0000000000e+00))
1.3419376042e-01	((3.5594198255e+00 1.2933722332e+01 1.0243727907e-19) (1.5163948483e-01 -6.8958794311e-03 -8.4988731567e-22) (0.0000000000e+00 0.0000000000e+00 0.0000000000e+00)) ((-6.4668611661e-01 1.7797099127e-01 6.0727313972e+00) (3.4479397155e-04 7.5819742415e-03 -3.9231458118e-03) (0.0000000000e+00 0.0000000000e+00 0.0000000000e+00))
1.3600042524e-01	((3.5475780055e+00 1.2921617987e+01 1.0203171934e-19) (1.5131355066e-01 -6.8463652580e-03 -8.5154701687e-22) (0.0000000000e+00 0.0000000000e+00 0.0000000000e+00)) ((-6.4608089933e-01 1.7737890027e-01 6.0534742413e+00) (3.4231826290e-04 7.5656775332e-03 -3.9322936453e-03) (0.0000000000e+00 0.0000000000e+00 0.0000000000e+00))
1.3780938354e-01	((3.5359753699e+00 1.2910170049e+01 1.0162113497e-19) (1.5099520249e-01 -6.7977643290e-03 -8.5322049840e-22) (0.0000000000e+00 0.0000000000e+00 0.0000000000e+00)) ((-6.4550850243e-01 1.7679876849e-01 6.0347317981e+00) (3.3988821645e-04 7.5497601243e-03 -3.9412395173e-03) (0.0000000000e+00 0.0000000000e+00 0.0000000000e+00))
1.3962061335e-01	((3.5245991444e+00 1.2899345894e+01 1.0120690020e-19) (1.5068429177e-01 -6.7500341602e-03 -8.5489471584e-22) (0.0000000000e+00 0.0000000000e+00 0.0000000000e+00)) ((-6.4496729468e-01 1.7622995722e-01 6.0164715446e+00) (3.3750170801e-04 7.5342145883e-03 -3.9499832012e-03) (0.0000000000e+00 0.0000000000e+00 0.0000000000e+00))
1.4143408379e-01	((3.5134477028e+00 1.2889163021e+01 1.0079129704e-19) (1.5038062226e-01 -6.7032073831e-03 -8.5654444195e-22) (0.0000000000e+00 0.0000000000e+00 0.0000000000e+00)) ((-6.4445815104e-01 1.7567238514e-01 5.9987013646e+00) (3.3516036915e-04 7.5190311129e-03 -3.9585490635e-03) (0.0000000000e+00 0.0000000000e+00 0.0000000000e+00))
1.4324976846e-01	((3.5025094038e+00 1.2879545143e+01 1.0037021528e-19) (1.5008398908e-01 -6.6572818952e-03 -8.5817626048e-22) (0.0000000000e+00 0.0000000000e+00 0.0000000000e+00)) ((-6.4397725714e-01 1.7512547019e-01 5.9813875131e+00) (3.3286409476e-04 7.5041994538e-03 -3.9669457973e-03) (0.0000000000e+00 0.0000000000e+00 0.0000000000e+00))
1.4506763971e-01	((3.4917850639e+00 1.2870521281e+01 9.9945717243e-20) (1.4979418799e-01 -6.6122298499e-03 -8.5981100974e-22) (0.0000000000e+00 0.0000000000e+00 0.0000000000e+00)) ((-6.4352606403e-01 1.7458925319e-01 5.9645356203e+00) (3.3061149250e-04 7.4897093994e-03 -3.9752000421e-03) (0.0000000000e+00 0.0000000000e+00 0.0000000000e+00))
1.4688767152e-01	((3.4812650006e+00 1.2862038142e+01 9.9521643256e-20) (1.4951106164e-01 -6.5680440376e-03 -8.6143339193e-22) (0.0000000000e+00 0.0000000000e+00 0.0000000000e+00)) ((-6.4310190709e-01 1.7406325003e-01 5.9481140332e+00) (3.2840220188e-04 7.4755530821e-03 -3.9833262205e-03) (0.0000000000e+00 0.0000000000e+00 0.0000000000e+00))