# Forces         
# CofR           : (0.0000000000e+00 0.0000000000e+00 0.0000000000e+00)
# Time           forces(pressure viscous porous) moment(pressure viscous porous)
1.7550133692e-03	((6.2164189992e+00 3.2489039029e+01 3.2625227353e-19) (1.9262641994e-01 -3.6506734899e-02 6.7917402123e-22) (0.0000000000e+00 0.0000000000e+00 0.0000000000e+00)) ((-1.6244519515e+00 3.1082094996e-01 1.1195733849e+01) (1.8253367449e-03 9.6313209972e-03 -8.3838882465e-02) (0.0000000000e+00 0.0000000000e+00 0.0000000000e+00))
3.4818396929e-03	((6.2264734613e+00 3.2679559389e+01 3.0861485076e-19) (1.7312964742e-01 -3.1645359280e-02 7.4162857703e-22) (0.0000000000e+00 0.0000000000e+00 0.0000000000e+00)) ((-1.6339779694e+00 3.1132367306e-01 1.1255696145e+01) (1.5822679640e-03 8.6564823711e-03 -7.5090247611e-02) (0.0000000000e+00 0.0000000000e+00 0.0000000000e+00))
5.1901642803e-03	((6.2409471726e+00 3.2778763855e+01 2.9718400278e-19) (1.6407135160e-01 -2.8463733152e-02 7.4226032294e-22) (0.0000000000e+00 0.0000000000e+00 0.0000000000e+00)) ((-1.6389381927e+00 3.1204735863e-01 1.1293892217e+01) (1.4231866576e-03 8.2035675798e-03 -7.0531456626e-02) (0.0000000000e+00 0.0000000000e+00 0.0000000000e+00))
6.8860550462e-03	((6.2431436857e+00 3.2813288347e+01 2.9479345405e-19) (1.6014071732e-01 -2.6200372713e-02 7.4968904941e-22) (0.0000000000e+00 0.0000000000e+00 0.0000000000e+00)) ((-1.6406644174e+00 3.1215718428e-01 1.1311553325e+01) (1.3100186357e-03 8.0070358661e-03 -6.8173211299e-02) (0.0000000000e+00 0.0000000000e+00 0.0000000000e+00))
8.5731134687e-03	((6.2423169934e+00 3.2831101338e+01 2.9977767001e-19) (1.5905345489e-01 -2.4695446842e-02 7.9909802903e-22) (0.0000000000e+00 0.0000000000e+00 0.0000000000e+00)) ((-1.6415550669e+00 3.1211584967e-01 1.1322853989e+01) (1.2347723421e-03 7.9526727445e-03 -6.7109112812e-02) (0.0000000000e+00 0.0000000000e+00 0.0000000000e+00))
1.0252995583e-02	((6.2339485744e+00 3.2830239408e+01 3.0195173260e-19) (1.5936997721e-01 -2.3856176465e-02 8.4926117101e-22) (0.0000000000e+00 0.0000000000e+00 0.0000000000e+00)) ((-1.6415119704e+00 3.1169742872e-01 1.1326609933e+01) (1.1928088232e-03 7.9684988604e-03 -6.6770517583e-02) (0.0000000000e+00 0.0000000000e+00 0.0000000000e+00))
1.1926613920e-02	((6.2217587176e+00 3.2831010298e+01 2.9822269609e-19) (1.6041450096e-01 -2.3494967183e-02 8.6776880727e-22) (0.0000000000e+00 0.0000000000e+00 0.0000000000e+00)) ((-1.6415505149e+00 3.1108793588e-01 1.1327816673e+01) (1.1747483591e-03 8.0207250481e-03 -6.6868867951e-02) (0.0000000000e+00 0.0000000000e+00 0.0000000000e+00))
1.3594629788e-02	((6.2041566940e+00 3.2831012805e+01 2.9404850199e-19) (1.6177844806e-01 -2.3429616115e-02 8.9035170230e-22) (0.0000000000e+00 0.0000000000e+00 0.0000000000e+00)) ((-1.6415506403e+00 3.1020783470e-01 1.1325988878e+01) (1.1714808058e-03 8.0889224032e-03 -6.7206802938e-02) (0.0000000000e+00 0.0000000000e+00 0.0000000000e+00))
1.5257703379e-02	((6.1795231469e+00 3.2824352027e+01 2.9217789047e-19) (1.6317879394e-01 -2.3535645598e-02 8.9672633158e-22) (0.0000000000e+00 0.0000000000e+00 0.0000000000e+00)) ((-1.6412176013e+00 3.0897615735e-01 1.1319867644e+01) (1.1767822799e-03 8.1589396968e-03 -6.7648594985e-02) (0.0000000000e+00 0.0000000000e+00 0.0000000000e+00))
1.6916520843e-02	((6.1494787144e+00 3.2812250662e+01 2.9052891119e-19) (1.6447692089e-01 -2.3718196166e-02 8.9625344863e-22) (0.0000000000e+00 0.0000000000e+00 0.0000000000e+00)) ((-1.6406125331e+00 3.0747393572e-01 1.1310413336e+01) (1.1859098083e-03 8.2238460447e-03 -6.8112116409e-02) (0.0000000000e+00 0.0000000000e+00 0.0000000000e+00))
1.8571717695e-02	((6.1210910990e+00 3.2807000402e+01 2.8697090222e-19) (1.6564370869e-01 -2.3924146012e-02 8.9487943043e-22) (0.0000000000e+00 0.0000000000e+00 0.0000000000e+00)) ((-1.6403500201e+00 3.0605455495e-01 1.1303214120e+01) (1.1962073006e-03 8.2821854345e-03 -6.8558074598e-02) (0.0000000000e+00 0.0000000000e+00 0.0000000000e+00))
2.0223813470e-02	((6.1021137974e+00 3.2817881572e+01 2.8078041494e-19) (1.6666646521e-01 -2.4109941258e-02 8.8999307296e-22) (0.0000000000e+00 0.0000000000e+00 0.0000000000e+00)) ((-1.6408940786e+00 3.0510568987e-01 1.1303724212e+01) (1.2054970629e-03 8.3333232605e-03 -6.8954697993e-02) (0.0000000000e+00 0.0000000000e+00 0.0000000000e+00))
2.1873205178e-02	((6.0876379139e+00 3.2836649331e+01 2.7263904047e-19) (1.6754518167e-01 -2.4258320449e-02 8.8502141601e-22) (0.0000000000e+00 0.0000000000e+00 0.0000000000e+00)) ((-1.6418324666e+00 3.0438189569e-01 1.1306823898e+01) (1.2129160224e-03 8.3772590834e-03 -6.9290251646e-02) (0.0000000000e+00 0.0000000000e+00 0.0000000000e+00))
2.3520330254e-02	((6.0807924020e+00 3.2873993291e+01 2.6528907252e-19) (1.6830784251e-01 -2.4371474827e-02 8.7965748803e-22) (0.0000000000e+00 0.0000000000e+00 0.0000000000e+00)) ((-1.6436996645e+00 3.0403962010e-01 1.1317634637e+01) (1.2185737414e-03 8.4153921257e-03 -6.9572909003e-02) (0.0000000000e+00 0.0000000000e+00 0.0000000000e+00))
2.5165458119e-02	((6.0731906736e+00 3.2911755600e+01 2.5805144009e-19) (1.6898154913e-01 -2.4452630322e-02 8.7683876080e-22) (0.0000000000e+00 0.0000000000e+00 0.0000000000e+00)) ((-1.6455877800e+00 3.0365953368e-01 1.1326716504e+01) (1.2226315161e-03 8.4490774564e-03 -6.9810852773e-02) (0.0000000000e+00 0.0000000000e+00 0.0000000000e+00))
2.6808823736e-02	((6.0677274889e+00 3.2952385174e+01 2.5190862868e-19) (1.6959080811e-01 -2.4513012985e-02 8.7513704970e-22) (0.0000000000e+00 0.0000000000e+00 0.0000000000e+00)) ((-1.6476192587e+00 3.0338637444e-01 1.1336487038e+01) (1.2256506493e-03 8.4795404053e-03 -7.0015359983e-02) (0.0000000000e+00 0.0000000000e+00 0.0000000000e+00))
2.8450626365e-02	((6.0657373500e+00 3.2995966932e+01 2.4715565806e-19) (1.7015442477e-01 -2.4560221410e-02 8.7307857364e-22) (0.0000000000e+00 0.0000000000e+00 0.0000000000e+00)) ((-1.6497983466e+00 3.0328686750e-01 1.1347801956e+01) (1.2280110705e-03 8.5077212386e-03 -7.0193753974e-02) (0.0000000000e+00 0.0000000000e+00 0.0000000000e+00))
3.0091029341e-02	((6.0658305312e+00 3.3040909493e+01 2.4385257557e-19) (1.7068228196e-01 -2.4601266467e-02 8.6987004463e-22) (0.0000000000e+00 0.0000000000e+00 0.0000000000e+00)) ((-1.6520454746e+00 3.0329152656e-01 1.1359722342e+01) (1.2300633233e-03 8.5341140982e-03 -7.0352886920e-02) (0.0000000000e+00 0.0000000000e+00 0.0000000000e+00))
3.1730125947e-02	((6.0665505458e+00 3.3084200779e+01 2.4165351215e-19) (1.7117977464e-01 -2.4642759126e-02 8.6569556998e-22) (0.0000000000e+00 0.0000000000e+00 0.0000000000e+00)) ((-1.6542100389e+00 3.0332752729e-01 1.1371004085e+01) (1.2321379563e-03 8.5589887322e-03 -7.0499457667e-02) (0.0000000000e+00 0.0000000000e+00 0.0000000000e+00))
3.3368042864e-02	((6.0658189194e+00 3.3124391240e+01 2.4004706894e-19) (1.7165043477e-01 -2.4689908178e-02 8.6014907229e-22) (0.0000000000e+00 0.0000000000e+00 0.0000000000e+00)) ((-1.6562195620e+00 3.0329094597e-01 1.1380317971e+01) (1.2344954089e-03 8.5825217387e-03 -7.0638685342e-02) (0.0000000000e+00 0.0000000000e+00 0.0000000000e+00))
3.5004897589e-02	((6.0640297243e+00 3.3161174195e+01 2.3890129065e-19) (1.7209514167e-01 -2.4743668038e-02 8.5472985287e-22) (0.0000000000e+00 0.0000000000e+00 0.0000000000e+00)) ((-1.6580587098e+00 3.0320148622e-01 1.1387968616e+01) (1.2371834019e-03 8.6047570833e-03 -7.0772821623e-02) (0.0000000000e+00 0.0000000000e+00 0.0000000000e+00))
3.6640861946e-02	((6.0607144155e+00 3.3195122248e+01 2.3787879993e-19) (1.7251533915e-01 -2.4804190593e-02 8.4967021749e-22) (0.0000000000e+00 0.0000000000e+00 0.0000000000e+00)) ((-1.6597561124e+00 3.0303572078e-01 1.1393913006e+01) (1.2402095297e-03 8.6257669577e-03 -7.0903195770e-02) (0.0000000000e+00 0.0000000000e+00 0.0000000000e+00))
3.8276066640e-02	((6.0562453033e+00 3.3225844275e+01 2.3684535711e-19) (1.7291155793e-01 -2.4870663896e-02 8.4565847397e-22) (0.0000000000e+00 0.0000000000e+00 0.0000000000e+00)) ((-1.6612922138e+00 3.0281226516e-01 1.1398334103e+01) (1.2435331948e-03 8.6455778966e-03 -7.1030405680e-02) (0.0000000000e+00 0.0000000000e+00 0.0000000000e+00))
3.9910704706e-02	((6.0505693868e+00 3.3253420581e+01 2.3555109955e-19) (1.7328295017e-01 -2.4941220884e-02 8.4320295716e-22) (0.0000000000e+00 0.0000000000e+00 0.0000000000e+00)) ((-1.6626710291e+00 3.0252846934e-01 1.1401258924e+01) (1.2470610442e-03 8.6641475086e-03 -7.1154239144e-02) (0.0000000000e+00 0.0000000000e+00 0.0000000000e+00))
4.1544505865e-02	((6.0435641686e+00 3.3277831604e+01 2.3405156207e-19) (1.7362956738e-01 -2.5013676519e-02 8.4172687177e-22) (0.0000000000e+00 0.0000000000e+00 0.0000000000e+00)) ((-1.6638915802e+00 3.0217820843e-01 1.1402637560e+01) (1.2506838260e-03 8.6814783690e-03 -7.1273690507e-02) (0.0000000000e+00 0.0000000000e+00 0.0000000000e+00))
4.3178253605e-02	((6.0350646881e+00 3.3298736702e+01 2.3234411366e-19) (1.7395161731e-01 -2.5086250913e-02 8.4181744641e-22) (0.0000000000e+00 0.0000000000e+00 0.0000000000e+00)) ((-1.6649368351e+00 3.0175323440e-01 1.1402327639e+01) (1.2543125456e-03 8.6975808656e-03 -7.1387902993e-02) (0.0000000000e+00 0.0000000000e+00 0.0000000000e+00))
4.4811153868e-02	((6.0267649181e+00 3.3317740006e+01 2.3078026668e-19) (1.7424936507e-01 -2.5157862846e-02 8.4232458883e-22) (0.0000000000e+00 0.0000000000e+00 0.0000000000e+00)) ((-1.6658870003e+00 3.0133824591e-01 1.1401787693e+01) (1.2578931423e-03 8.7124682536e-03 -7.1496539539e-02) (0.0000000000e+00 0.0000000000e+00 0.0000000000e+00))
4.6443959966e-02	((6.0184223293e+00 3.3334570898e+01 2.2928200669e-19) (1.7452406109e-01 -2.5227712634e-02 8.4368025293e-22) (0.0000000000e+00 0.0000000000e+00 0.0000000000e+00)) ((-1.6667285449e+00 3.0092111646e-01 1.1400788627e+01) (1.2613856317e-03 8.7262030546e-03 -7.1599400944e-02) (0.0000000000e+00 0.0000000000e+00 0.0000000000e+00))
4.8076766065e-02	((6.0106800776e+00 3.3350315022e+01 2.2793854651e-19) (1.7477716471e-01 -2.5295075244e-02 8.4523977834e-22) (0.0000000000e+00 0.0000000000e+00 0.0000000000e+00)) ((-1.6675157511e+00 3.0053400388e-01 1.1399950843e+01) (1.2647537622e-03 8.7388582355e-03 -7.1696309022e-02) (0.0000000000e+00 0.0000000000e+00 0.0000000000e+00))
4.9709572164e-02	((6.0041818285e+00 3.3365320108e+01 2.2675021327e-19) (1.7501030394e-01 -2.5359436105e-02 8.4681776322e-22) (0.0000000000e+00 0.0000000000e+00 0.0000000000e+00)) ((-1.6682660054e+00 3.0020909143e-01 1.1399692728e+01) (1.2679718053e-03 8.7505151972e-03 -7.1787143421e-02) (0.0000000000e+00 0.0000000000e+00 0.0000000000e+00))
5.1342378262e-02	((5.9984275510e+00 3.3379544958e+01 2.2558961873e-19) (1.7522485113e-01 -2.5420062330e-02 8.4834524781e-22) (0.0000000000e+00 0.0000000000e+00 0.0000000000e+00)) ((-1.6689772479e+00 2.9992137755e-01 1.1399635421e+01) (1.2710031165e-03 8.7612425567e-03 -7.1871693282e-02) (0.0000000000e+00 0.0000000000e+00 0.0000000000e+00))
5.2975184361e-02	((5.9934330109e+00 3.3392904922e+01 2.2446346356e-19) (1.7542213750e-01 -2.5476727461e-02 8.4979361163e-22) (0.0000000000e+00 0.0000000000e+00 0.0000000000e+00)) ((-1.6696452461e+00 2.9967165055e-01 1.1399736165e+01) (1.2738363731e-03 8.7711068750e-03 -7.1949841731e-02) (0.0000000000e+00 0.0000000000e+00 0.0000000000e+00))
5.4607122067e-02	((5.9900521359e+00 3.3406689404e+01 2.2355032987e-19) (1.7560369648e-01 -2.5529570384e-02 8.5065485390e-22) (0.0000000000e+00 0.0000000000e+00 0.0000000000e+00)) ((-1.6703344702e+00 2.9950260679e-01 1.1400811171e+01) (1.2764785192e-03 8.7801848240e-03 -7.2021973786e-02) (0.0000000000e+00 0.0000000000e+00 0.0000000000e+00))
5.6238785544e-02	((5.9876608857e+00 3.3420035527e+01 2.2268381921e-19) (1.7577089962e-01 -2.5578488235e-02 8.5194282785e-22) (0.0000000000e+00 0.0000000000e+00 0.0000000000e+00)) ((-1.6710017764e+00 2.9938304428e-01 1.1402290941e+01) (1.2789244118e-03 8.7885449811e-03 -7.2088330613e-02) (0.0000000000e+00 0.0000000000e+00 0.0000000000e+00))
5.7870449021e-02	((5.9862603737e+00 3.3433441573e+01 2.2190555817e-19) (1.7592506205e-01 -2.5623718019e-02 8.5309828835e-22) (0.0000000000e+00 0.0000000000e+00 0.0000000000e+00)) ((-1.6716720786e+00 2.9931301869e-01 1.1404297112e+01) (1.2811859009e-03 8.7962531026e-03 -7.2149337236e-02) (0.0000000000e+00 0.0000000000e+00 0.0000000000e+00))
5.9502112498e-02	((5.9853712086e+00 3.3446199277e+01 2.2114573866e-19) (1.7606748435e-01 -2.5665677252e-02 8.5421717579e-22) (0.0000000000e+00 0.0000000000e+00 0.0000000000e+00)) ((-1.6723099638e+00 2.9926856043e-01 1.1406421336e+01) (1.2832838626e-03 8.8033742174e-03 -7.2205546728e-02) (0.0000000000e+00 0.0000000000e+00 0.0000000000e+00))
6.1133775975e-02	((5.9854538830e+00 3.3459398487e+01 2.2056196192e-19) (1.7619942685e-01 -2.5704660438e-02 8.5512127183e-22) (0.0000000000e+00 0.0000000000e+00 0.0000000000e+00)) ((-1.6729699244e+00 2.9927269415e-01 1.1409214163e+01) (1.2852330219e-03 8.8099713425e-03 -7.2257421252e-02) (0.0000000000e+00 0.0000000000e+00 0.0000000000e+00))
6.2765439453e-02	((5.9857129411e+00 3.3472130367e+01 2.2000573401e-19) (1.7632176397e-01 -2.5740786152e-02 8.5590145683e-22) (0.0000000000e+00 0.0000000000e+00 0.0000000000e+00)) ((-1.6736065184e+00 2.9928564706e-01 1.1412005115e+01) (1.2870393076e-03 8.8160881983e-03 -7.2305307762e-02) (0.0000000000e+00 0.0000000000e+00 0.0000000000e+00))
6.4397102930e-02	((5.9862669724e+00 3.3484417063e+01 2.1951255847e-19) (1.7643544281e-01 -2.5774368944e-02 8.5665724949e-22) (0.0000000000e+00 0.0000000000e+00 0.0000000000e+00)) ((-1.6742208531e+00 2.9931334862e-01 1.1414890876e+01) (1.2887184472e-03 8.8217721405e-03 -7.2349642390e-02) (0.0000000000e+00 0.0000000000e+00 0.0000000000e+00))
6.6028766407e-02	((5.9869897116e+00 3.3496440293e+01 2.1906970882e-19) (1.7654136183e-01 -2.5805677151e-02 8.5753909295e-22) (0.0000000000e+00 0.0000000000e+00 0.0000000000e+00)) ((-1.6748220147e+00 2.9934948558e-01 1.1417827705e+01) (1.2902838576e-03 8.8270680914e-03 -7.2390775832e-02) (0.0000000000e+00 0.0000000000e+00 0.0000000000e+00))
6.7660429884e-02	((5.9877862633e+00 3.3508250245e+01 2.1869371525e-19) (1.7664009544e-01 -2.5834878804e-02 8.5830714372e-22) (0.0000000000e+00 0.0000000000e+00 0.0000000000e+00)) ((-1.6754125123e+00 2.9938931317e-01 1.1420788653e+01) (1.2917439402e-03 8.8320047722e-03 -7.2429076632e-02) (0.0000000000e+00 0.0000000000e+00 0.0000000000e+00))
6.9292093361e-02	((5.9883203506e+00 3.3519480395e+01 2.1834105576e-19) (1.7673217948e-01 -2.5862154232e-02 8.5898261839e-22) (0.0000000000e+00 0.0000000000e+00 0.0000000000e+00)) ((-1.6759740198e+00 2.9941601753e-01 1.1423484088e+01) (1.2931077116e-03 8.8366089738e-03 -7.2464843992e-02) (0.0000000000e+00 0.0000000000e+00 0.0000000000e+00))
7.0923756838e-02	((5.9887452087e+00 3.3530223554e+01 2.1802603952e-19) (1.7681806155e-01 -2.5887647036e-02 8.5953267714e-22) (0.0000000000e+00 0.0000000000e+00 0.0000000000e+00)) ((-1.6765111777e+00 2.9943726044e-01 1.1426024057e+01) (1.2943823518e-03 8.8409030777e-03 -7.2498352612e-02) (0.0000000000e+00 0.0000000000e+00 0.0000000000e+00))
7.2555420315e-02	((5.9887696281e+00 3.3540309054e+01 2.1771840330e-19) (1.7689793926e-01 -2.5911371153e-02 8.5980432450e-22) (0.0000000000e+00 0.0000000000e+00 0.0000000000e+00)) ((-1.6770154527e+00 2.9943848140e-01 1.1428181735e+01) (1.2955685577e-03 8.8448969629e-03 -7.2529747622e-02) (0.0000000000e+00 0.0000000000e+00 0.0000000000e+00))
7.4187083792e-02	((5.9885518670e+00 3.3549975204e+01 2.1746648212e-19) (1.7697248048e-01 -2.5933426188e-02 8.6000806853e-22) (0.0000000000e+00 0.0000000000e+00 0.0000000000e+00)) ((-1.6774987602e+00 2.9942759335e-01 1.1430120757e+01) (1.2966713094e-03 8.8486240238e-03 -7.2559173041e-02) (0.0000000000e+00 0.0000000000e+00 0.0000000000e+00))
7.5818747269e-02	((5.9886877765e+00 3.3559749738e+01 2.1731776050e-19) (1.7704226414e-01 -2.5953896867e-02 8.6018330563e-22) (0.0000000000e+00 0.0000000000e+00 0.0000000000e+00)) ((-1.6779874869e+00 2.9943438883e-01 1.1432328927e+01) (1.2976948434e-03 8.8521132072e-03 -7.2586791774e-02) (0.0000000000e+00 0.0000000000e+00 0.0000000000e+00))
7.7450410746e-02	((5.9884869856e+00 3.3569047756e+01 2.1715850578e-19) (1.7710769483e-01 -2.5972852526e-02 8.6031649240e-22) (0.0000000000e+00 0.0000000000e+00 0.0000000000e+00)) ((-1.6784523878e+00 2.9942434928e-01 1.1434244230e+01) (1.2986426263e-03 8.8553847413e-03 -7.2612716732e-02) (0.0000000000e+00 0.0000000000e+00 0.0000000000e+00))
7.9082074224e-02	((5.9882685349e+00 3.3578035252e+01 2.1701826613e-19) (1.7716913912e-01 -2.5990367727e-02 8.6042780149e-22) (0.0000000000e+00 0.0000000000e+00 0.0000000000e+00)) ((-1.6789017626e+00 2.9941342674e-01 1.1436095852e+01) (1.2995183863e-03 8.8584569560e-03 -7.2637098767e-02) (0.0000000000e+00 0.0000000000e+00 0.0000000000e+00))
8.0713737701e-02	((5.9879740678e+00 3.3586577617e+01 2.1685375231e-19) (1.7722690554e-01 -2.6006567542e-02 8.6057715352e-22) (0.0000000000e+00 0.0000000000e+00 0.0000000000e+00)) ((-1.6793288809e+00 2.9939870339e-01 1.1437806765e+01) (1.3003283771e-03 8.8613452770e-03 -7.2660072279e-02) (0.0000000000e+00 0.0000000000e+00 0.0000000000e+00))
8.2345401178e-02	((5.9880973443e+00 3.3595257598e+01 2.1676550428e-19) (1.7728139415e-01 -2.6021583680e-02 8.6073544804e-22) (0.0000000000e+00 0.0000000000e+00 0.0000000000e+00)) ((-1.6797628799e+00 2.9940486722e-01 1.1439819014e+01) (1.3010791840e-03 8.8640697077e-03 -7.2681788331e-02) (0.0000000000e+00 0.0000000000e+00 0.0000000000e+00))
8.3976161758e-02	((5.9879135002e+00 3.3603390908e+01 2.1662795001e-19) (1.7733336875e-01 -2.6035894675e-02 8.5956028112e-22) (0.0000000000e+00 0.0000000000e+00 0.0000000000e+00)) ((-1.6801695454e+00 2.9939567501e-01 1.1441535944e+01) (1.3017947338e-03 8.8666684373e-03 -7.2702684728e-02) (0.0000000000e+00 0.0000000000e+00 0.0000000000e+00))
8.5604600604e-02	((5.9876426826e+00 3.3611176463e+01 2.1647927900e-19) (1.7738237076e-01 -2.6049047793e-02 8.5974699669e-22) (0.0000000000e+00 0.0000000000e+00 0.0000000000e+00)) ((-1.6805588231e+00 2.9938213413e-01 1.1443140220e+01) (1.3024523897e-03 8.8691185381e-03 -7.2722438621e-02) (0.0000000000e+00 0.0000000000e+00 0.0000000000e+00))
8.7233039450e-02	((5.9872766239e+00 3.3618806119e+01 2.1632392564e-19) (1.7742894792e-01 -2.6061199641e-02 8.5990001327e-22) (0.0000000000e+00 0.0000000000e+00 0.0000000000e+00)) ((-1.6809403059e+00 2.9936383120e-01 1.1444665215e+01) (1.3030599820e-03 8.8714473962e-03 -7.2741218915e-02) (0.0000000000e+00 0.0000000000e+00 0.0000000000e+00))
8.8861478295e-02	((5.9870968902e+00 3.3626273521e+01 2.1618150880e-19) (1.7747339121e-01 -2.6072543983e-02 8.6013084944e-22) (0.0000000000e+00 0.0000000000e+00 0.0000000000e+00)) ((-1.6813136760e+00 2.9935484451e-01 1.1446288399e+01) (1.3036271991e-03 8.8736695603e-03 -7.2759179370e-02) (0.0000000000e+00 0.0000000000e+00 0.0000000000e+00))
9.0489917141e-02	((5.9868212909e+00 3.3633577885e+01 2.1602071621e-19) (1.7751595961e-01 -2.6083144559e-02 8.6035771837e-22) (0.0000000000e+00 0.0000000000e+00 0.0000000000e+00)) ((-1.6816788943e+00 2.9934106454e-01 1.1447832371e+01) (1.3041572279e-03 8.8757979805e-03 -7.2776397428e-02) (0.0000000000e+00 0.0000000000e+00 0.0000000000e+00))
9.2118355987e-02	((5.9864773409e+00 3.3640581726e+01 2.1585110253e-19) (1.7755677701e-01 -2.6093079347e-02 8.6059455419e-22) (0.0000000000e+00 0.0000000000e+00 0.0000000000e+00)) ((-1.6820290863e+00 2.9932386704e-01 1.1449277870e+01) (1.3046539674e-03 8.8778388507e-03 -7.2792934074e-02) (0.0000000000e+00 0.0000000000e+00 0.0000000000e+00))
9.3746794832e-02	((5.9863124366e+00 3.3647566078e+01 2.1570056477e-19) (1.7759614207e-01 -2.6102485990e-02 8.6086121083e-22) (0.0000000000e+00 0.0000000000e+00 0.0000000000e+00)) ((-1.6823783039e+00 2.9931562183e-01 1.1450845100e+01) (1.3051242995e-03 8.8798071036e-03 -7.2808917015e-02) (0.0000000000e+00 0.0000000000e+00 0.0000000000e+00))
9.5375233678e-02	((5.9860430977e+00 3.3654358954e+01 2.1552958972e-19) (1.7763412015e-01 -2.6111386882e-02 8.6112425489e-22) (0.0000000000e+00 0.0000000000e+00 0.0000000000e+00)) ((-1.6827179477e+00 2.9930215488e-01 1.1452312841e+01) (1.3055693441e-03 8.8817060073e-03 -7.2824355048e-02) (0.0000000000e+00 0.0000000000e+00 0.0000000000e+00))
9.7003672524e-02	((5.9856569797e+00 3.3660725633e+01 2.1535044257e-19) (1.7767080360e-01 -2.6119803451e-02 8.6140358161e-22) (0.0000000000e+00 0.0000000000e+00 0.0000000000e+00)) ((-1.6830362816e+00 2.9928284898e-01 1.1453621233e+01) (1.3059901725e-03 8.8835401799e-03 -7.2839271565e-02) (0.0000000000e+00 0.0000000000e+00 0.0000000000e+00))
9.8632111370e-02	((5.9852005618e+00 3.3666924561e+01 2.1517631621e-19) (1.7770616739e-01 -2.6127792711e-02 8.6163674157e-22) (0.0000000000e+00 0.0000000000e+00 0.0000000000e+00)) ((-1.6833462281e+00 2.9926002809e-01 1.1454854666e+01) (1.3063896355e-03 8.8853083695e-03 -7.2853684935e-02) (0.0000000000e+00 0.0000000000e+00 0.0000000000e+00))
