0.0015924202911 1.676007755 0.58384282723 0.999464185432
0.0033107349477 1.5311637753 0.542799399689 0.934692730016
0.0050165142489 1.45210912236 0.52282608388 0.900825484804
0.0066958627411 1.3955814378 0.508724529133 0.87361398738
0.0083554343731 1.35494177262 0.498072201792 0.849980391974
0.010001271945 1.32566973881 0.489441489345 0.829581652427
0.01163700762 1.30416379678 0.481968285552 0.812203936587
0.013265237704 1.28779239255 0.475187250514 0.797397658586
0.014888209386 1.27474126139 0.468926245789 0.784699348602
0.016507899129 1.26383656572 0.463030793976 0.773625829133
0.018125857702 1.25465071834 0.45732102395 0.763873137996
0.019743261891 1.24639448706 0.451789973323 0.754810635814
0.021360928524 1.23889489088 0.446458182452 0.746335570614
0.02297944948 1.23224268332 0.441344682799 0.738524007436
0.024599247105 1.22634221798 0.436445747212 0.731293766104
0.026220611255 1.22117306403 0.431778815507 0.7245999974
0.027843759736 1.2167597728 0.427362113483 0.71844540389
0.029468835465 1.21304103471 0.423194878711 0.712758145137
0.031095935884 1.20989839464 0.419235584141 0.707421113166
0.032725129722 1.207116842 0.415485872976 0.702309810524
0.034356463149 1.20460928144 0.41189933523 0.697352894151
0.035989974766 1.20216728271 0.40844634971 0.692458822982
0.037625706475 1.1996696866 0.405135926838 0.687587518483
0.039263719649 1.19704671432 0.4019163686 0.682662074032
0.04090407629 1.19421391077 0.398787315975 0.677653010654
0.04254685012 1.19113889979 0.395734470056 0.672563128149
0.044192125308 1.18781031917 0.392740998853 0.667371200361
0.045840004853 1.18422212277 0.3898000269 0.662081633614
0.047490616134 1.18034227778 0.386930039418 0.656729270746
0.04914408276 1.17627833321 0.384104002258 0.651324628049
0.050800518495 1.17202007492 0.381328400572 0.645909367963
0.05246002028 1.16763091307 0.378602400181 0.640517763897
0.054122687045 1.16312144498 0.375918228413 0.635151369407
0.055788600564 1.15857110865 0.37328859893 0.629873011181
0.057457836731 1.15397538481 0.370710920627 0.624680213679
0.059130481739 1.14942391147 0.368193743669 0.619615967749
0.060806606537 1.14492657272 0.365733410264 0.614670719473
0.062486268922 1.14049532023 0.363324043033 0.609856243064
0.064169517964 1.13615158576 0.360968319453 0.605177029097
0.06585638671 1.13189803534 0.35866433474 0.60062719108
0.067546883879 1.12776042573 0.356410194856 0.596209818576
0.069241005371 1.12374436948 0.354208614643 0.591923172953
0.07093873401 1.11987293815 0.352060086995 0.58777895148
0.072640057904 1.11613489318 0.349960253432 0.583756619889
0.074344949377 1.11254138115 0.347911970691 0.579863679152
0.076053385943 1.10908491929 0.345913292387 0.576091654083
0.077765329844 1.10576678259 0.343960443818 0.572428703091
0.079480745139 1.10257838121 0.342053349133 0.568872276844
0.081199589415 1.09950803675 0.340189522783 0.565414472111
0.082921821212 1.09655804313 0.338369608619 0.562050548859
0.084647395857 1.09371452288 0.336591725748 0.558775429749
0.086376270468 1.09097725302 0.334854475161 0.555585145101
0.088108401474 1.08833140914 0.333154755993 0.552468005224
0.089843740337 1.08577830509 0.331493718618 0.549427524781
0.091582242926 1.08330628196 0.329869381649 0.546457714643
0.093323873893 1.08091779958 0.328281443025 0.543557832373
0.095068593014 1.078601362 0.326727234909 0.540721804167
0.096816362933 1.07636062415 0.325205751477 0.537961196273
0.098567149223 1.07416384622 0.323715616708 0.535243783675
0.10032091606 1.07203205308 0.322257276292 0.532588547015
0.10207763063 1.06995733161 0.320828310989 0.529990978103
0.10383726405 1.06793311281 0.319426704947 0.527445043455
0.10559979057 1.06595859917 0.318050802708 0.524949400913
0.10736518137 1.06403755207 0.316701225062 0.52250793694
0.10913341261 1.06216198114 0.315375970897 0.520113849087
0.11090446009 1.06034168021 0.314075127389 0.517774938421
0.11267830107 1.05856653213 0.312799207698 0.515481446021
0.11445491247 1.05684172712 0.311546416046 0.513237096461
0.1162342727 1.05518922766 0.310317969387 0.511056459879
0.11801636078 1.05358902657 0.309112607701 0.508924766332
0.11980115451 1.05204810125 0.307931033668 0.50684529759
0.12158862767 1.05057000515 0.306772896392 0.504819056584
0.12337875554 1.04914302662 0.305636918997 0.502839678337
0.12517151492 1.0477732989 0.304522914012 0.500908053023
0.12696687856 1.04647655275 0.3034334269 0.499036571027
0.12876482168 1.04523099375 0.302364479317 0.497207313085
0.13056532105 1.04404054412 0.301316909596 0.49542368191
0.13236835029 1.04291037389 0.300290605434 0.493687960218
0.13417377569 1.04182616679 0.299283542238 0.491990180892
0.13598052575 1.04080841126 0.298298440575 0.490344787313
0.13778830545 1.03983400639 0.297331923517 0.488735622533
0.13959708275 1.03891173016 0.296384543986 0.487167574487
0.14140682735 1.03803691955 0.295455692895 0.485638563212
0.14321750391 1.03720944512 0.294544588171 0.484146530304
0.14502908368 1.03642752503 0.293650844726 0.482691537036
0.14684153677 1.03569057051 0.292774175379 0.481272672983
0.14865482827 1.03499771905 0.291913728897 0.479888727609
0.15046892792 1.03434543374 0.291069439111 0.478537772597
0.15228380532 1.03373341477 0.290240603505 0.47721926124
0.15409943087 1.03315328359 0.289428597266 0.47592677858
0.15591577483 1.03261891948 0.288629375366 0.474670877417
0.15773280828 1.0321240381 0.287845173175 0.4734463215
0.15955049919 1.03166426973 0.287075075926 0.472250317865
0.16136881934 1.03123999306 0.28631824386 0.471082085828
0.16318773641 1.03085216922 0.285575286157 0.469943088295
0.16500722585 1.03049816539 0.284845491861 0.46883118754
0.16682725703 1.03017677096 0.28412861839 0.467746401435
0.16864780318 1.02988879519 0.283424366219 0.466687327132
0.17046883838 1.02963249686 0.282732363041 0.465654097559
0.17229033563 1.02940488965 0.28205212457 0.464644915355
0.17411226979 1.02920758068 0.281383557046 0.463660376329
0.17593461763 1.02903714565 0.280725954534 0.462697928617
0.17775735882 1.02889728293 0.280079552829 0.461761000874
0.17958046794 1.02878031834 0.279444147556 0.460843708571
0.18140392147 1.0286915741 0.278819145961 0.459949498687
0.18322769983 1.02862519419 0.278203916749 0.459074940195
0.18505177934 1.02858476489 0.277598417603 0.458221309633
0.18687614533 1.02856498724 0.277002600093 0.457386341634
0.18870078408 1.02857478524 0.276416461755 0.456574052655
0.19052567878 1.02859813212 0.275838252737 0.455775331672
0.19235080545 1.02864967933 0.275270093646 0.454998549324
0.19417615223 1.02871606047 0.274710434166 0.454236810261
0.19600169805 1.02880387573 0.274158993135 0.453492295195
0.19782743097 1.0289114389 0.273615538037 0.452765728331
0.19965332875 1.02903734665 0.273080016813 0.452054931589
0.20147937832 1.02918130955 0.272552804651 0.451360844232
0.20330556245 1.02934643028 0.272032969041 0.450684431055
0.20513187106 1.02951584861 0.271519007696 0.450014366911
0.20695828374 1.02970938145 0.271013296694 0.449364758521
0.20878479135 1.02991794278 0.270514704428 0.448729156953
0.21061137545 1.03014267607 0.270022668889 0.448107858138
0.2124380289 1.03038280572 0.269538111424 0.4475012171
0.21426473313 1.03063564142 0.269060044687 0.446907076522
0.21609147681 1.03089888178 0.268587843195 0.446324558517
0.21791826416 1.03117634039 0.268122203207 0.445755436905
0.21974505982 1.0314657252 0.267662723571 0.445198659438
0.22157185549 1.03176669766 0.267209068858 0.444653717681
0.22339865116 1.03207638409 0.266761006006 0.444117289642
0.22522544683 1.0324002464 0.266318552433 0.443595175286
0.22705223516 1.03273453253 0.265881763902 0.443083657919
0.22887897841 1.03307860261 0.265450217833 0.442583735569
0.23070569223 1.03343216663 0.265023697242 0.442093873514
0.2325323619 1.03379413463 0.264602722403 0.441614488579
0.23435897891 1.03416443016 0.264186465705 0.441144282257
0.23618553371 1.03454623662 0.263774219983 0.440685311414
0.23801201459 1.03493551134 0.263367417842 0.440234761746
0.23983841618 1.03533342171 0.26296532066 0.439793583615
0.24166472988 1.03573898213 0.262567488362 0.439361489752
0.2434909524 1.03615137034 0.262174667824 0.438937531029
0.245317073 1.03657271516 0.261786052444 0.438522975905
0.24714308624 1.03699559519 0.261401685209 0.438113380778
0.24896898557 1.03743250975 0.261021805941 0.437716098978
0.25079476871 1.0378726072 0.260645768443 0.437324951265
0.25262042592 1.03832001673 0.260273853857 0.436941915933
0.25444595273 1.03877500478 0.259905661346 0.436566450979
0.25627134578 1.03923575401 0.259542174469 0.436199437057
0.25809659845 1.03969879705 0.259180818074 0.435837442573
0.25992170305 1.04017003925 0.258825065971 0.43548452682
0.26174665509 1.04064571815 0.258472368671 0.435136615923
0.26357144899 1.04112694041 0.258123037909 0.434795525708
0.26539607917 1.04161355447 0.257777391447 0.434462289496
0.26722054109 1.04210495166 0.257435183865 0.434136001945
0.26904482805 1.04260134237 0.257096279837 0.433815558141
0.27086893444 1.04310251578 0.25676102431 0.433502512495
0.27269286 1.04360767471 0.256428878312 0.433196052312
0.27451659476 1.04411774142 0.25609976278 0.432893480658
0.27634013956 1.04462934214 0.255774056961 0.432597359439
0.27816348545 1.04514503869 0.255451567994 0.432307277966
0.27998663219 1.04566468426 0.255132258786 0.432022956281
0.28180957625 1.04618874503 0.254815909357 0.431744747039
0.28363231084 1.04671428538 0.254502357937 0.431471285027
0.28545483021 1.04724246327 0.254191980071 0.431203135692
0.28727713192 1.04777700435 0.253883640407 0.430942654763
0.2890992135 1.04831239345 0.253578294192 0.430685966706
0.29092107247 1.04885048705 0.253275923478 0.430434277272
0.29274270526 1.0493919503 0.252975997945 0.43018695575
0.2945641094 1.04993534639 0.252679375163 0.429944890743
0.29638528458 1.05048063544 0.252385731765 0.429707131818
0.29820622722 1.0510276332 0.252094881421 0.429473151987
0.30002693261 1.05157718292 0.251806415421 0.429243120769
0.30184739824 1.05212734417 0.251521613909 0.429017658619
0.30366762271 1.0526811948 0.251239213965 0.428796813204
0.30548760128 1.05323645447 0.250959818617 0.428579702936
0.30730733586 1.05379315479 0.250683128623 0.428366543265
0.3091268095 1.05435262835 0.250409311291 0.428157406602
0.31094602297 1.05491343448 0.250137993689 0.427952399502
0.31276497596 1.05547547319 0.249869969377 0.427750847297
0.31458366146 1.05603917447 0.249604120481 0.42755246813
0.31640208136 1.05660520875 0.249340402132 0.427358729447
0.31822023198 1.05717590158 0.249078623563 0.42717078361
0.32003811076 1.05775040869 0.248818441269 0.426987978373
0.32185571287 1.05832602903 0.248559629741 0.426809545824
0.32367303462 1.05889689362 0.248305282581 0.426631342202
0.32549007564 1.05947822779 0.248049856155 0.426463011639
0.32730683335 1.06006259591 0.247794519726 0.426299104287
0.32912330627 1.06064898299 0.247539650386 0.42613951473
0.3309394918 1.06124341884 0.247283789947 0.42598761352
0.33275539071 1.06183236314 0.247031425811 0.425835462593
0.33457100151 1.0624231408 0.246780707341 0.425687835959
0.33638632271 1.06301454601 0.246530800602 0.425543014314
0.33820135397 1.06360612697 0.246281951628 0.425401804381
0.34001609377 1.06419892183 0.246034336625 0.425263650775
0.3418305429 1.06479335992 0.245787509123 0.425129068645
0.34364469986 1.06538851826 0.245541719524 0.424997412069
0.34545856541 1.06598300682 0.24529790278 0.424868244016
0.34727213692 1.0665772648 0.245055313869 0.424741683886
0.34908541517 1.06717158454 0.244814249681 0.424617922118
0.35089839978 1.0677661768 0.244574599181 0.424496915918
0.3527110881 1.06836108108 0.244336308733 0.42437849489
0.35452347975 1.06895634003 0.244099419257 0.424263060092
0.35633557437 1.06954969281 0.24386507645 0.424149671953
0.35814737159 1.07014234199 0.243631167487 0.424037341461
0.35995886987 1.0707356661 0.243398656893 0.423927911879
0.36177006654 1.07132965423 0.243168489312 0.423822157089
0.36358096123 1.07192282251 0.242939224099 0.423717530793
0.36539155354 1.0725147865 0.242711694651 0.423615154764
0.36720184542 1.07310614496 0.242485598855 0.423514651849
0.369011833 1.07369698795 0.242260826055 0.423416387672
0.37082151708 1.07428683903 0.242037588543 0.423320012652
0.37263089608 1.07487544222 0.241815863303 0.423225343389
0.37443997081 1.07546358085 0.241595441934 0.42313263783
0.37624874202 1.0760508882 0.241376363161 0.423041787623
0.37805720701 1.07663841689 0.241158771381 0.422952990638
0.37986536772 1.07722494081 0.240942348396 0.422865960089
0.38167322142 1.07781119675 0.24072708071 0.422780702045
0.38348076773 1.07839673208 0.240513211041 0.422697041203
0.38528800507 1.07898337882 0.240300505581 0.422614953916
0.38709493424 1.0795651134 0.240089604603 0.422535567647
0.38890155599 1.08015208818 0.239879059467 0.422456670689
0.39070787112 1.08073267225 0.239671269491 0.422381035915
0.3925138757 1.08131490648 0.239463680256 0.422306770047
0.39431957404 1.08189894735 0.239257076275 0.422233726272
0.39612496457 1.08248470765 0.239051444794 0.422162772868
0.3979300469 1.08306229746 0.238848725657 0.422094702713
0.39973481824 1.08364326382 0.238647102806 0.422026920534
0.40153928175 1.08422567239 0.238445454905 0.421960315374
0.40334343586 1.0848075594 0.23824507854 0.421895415083
0.40514728133 1.08538924042 0.238045969571 0.421832437539
0.4069508154 1.08597077146 0.237847938763 0.421771105942
0.40875403766 1.08655156678 0.237651278141 0.421711506817
0.4105569465 1.08713215204 0.237455662537 0.421653506721
0.41235954271 1.08771330095 0.237260844165 0.421596960512
0.41416182349 1.08829324073 0.237067545612 0.421542316654
0.41596378844 1.08887353673 0.236875391595 0.421489438212
0.41776543952 1.0894523302 0.236683848656 0.421436775427
0.41956677514 1.09003131414 0.236493183376 0.421385646681
0.42136779366 1.09061012235 0.236303538367 0.421336087194
0.42316849589 1.09118544011 0.236116923594 0.421289730028
0.42496888139 1.09176436468 0.235929567308 0.42124422073
0.42676895096 1.09234157454 0.235743226513 0.421199440088
0.42856870297 1.09291875471 0.235557966849 0.421156432387
0.43036813579 1.09349513217 0.235373696033 0.42111468619
0.43216724779 1.0940714561 0.235190374671 0.421074399287
0.43396603854 1.09464640622 0.235007827352 0.421035070404
0.43576450518 1.09522088881 0.234826726694 0.420997423736
0.43756265094 1.0957945326 0.234646343903 0.420960621902
0.43936047538 1.09636882683 0.234465359916 0.42092511611
0.44115797565 1.09694140304 0.234287986495 0.420890476866
0.44295515617 1.09751285023 0.234110577714 0.420857440385
0.44475201408 1.09808431133 0.233934078115 0.420825873972
0.44654854896 1.09865335158 0.233758468234 0.420794709106
0.4483447628 1.09922364064 0.233583779311 0.420765372891
0.45014065396 1.09978969021 0.233410558065 0.420736991204
0.45193622569 1.10035595933 0.23323868661 0.420709030888
0.45373147631 1.1009209587 0.233067443521 0.420682298776
0.4555264054 1.10148101234 0.232899699987 0.420655307943
0.45732101745 1.10203875713 0.232735226164 0.420629100087
0.45911530832 1.10259468824 0.232572354413 0.420603539384
0.46090927757 1.1031487417 0.232412371069 0.42057849089
0.46270292477 1.10370031711 0.232256128122 0.420553831
0.46449625071 1.10424953713 0.232102311064 0.420529882521
0.4662892562 1.10479819694 0.231949984602 0.420506892537
0.46808194203 1.1053479437 0.231799516795 0.420486116976
0.469874309 1.10589655424 0.231649944821 0.420466147224
0.47166636168 1.10644391954 0.23150106342 0.420446700895
0.47345810212 1.10699106557 0.231352878572 0.420428320277
0.47524952987 1.10753722149 0.231205287596 0.420410957759
0.47704064452 1.10808342298 0.231058104747 0.420394946538
0.47883145062 1.1086272659 0.230911758833 0.420378780647
0.48062194398 1.10917181485 0.230765953567 0.420364296046
0.48241212291 1.10971626696 0.230620256708 0.420350602547
0.48420199325 1.11025996172 0.230475000638 0.42033789026
0.48599154827 1.11080339573 0.23033003632 0.420325859902
0.48778078752 1.1113461629 0.23018549176 0.4203145457
0.48956971055 1.11188834063 0.230041165425 0.420303907596
0.49135832071 1.11242904079 0.229897718427 0.420293563628
0.4931466163 1.11296984179 0.229754684879 0.420284370583
0.49493459559 1.1135088026 0.229611902487 0.420275518684
0.49672226195 1.11404573789 0.229469601497 0.420267019324
0.49850961493 1.1145829269 0.229327440481 0.420259363597
0.50029665408 1.11511903341 0.229185701821 0.420252271167
0.50208338023 1.11565404432 0.22904448943 0.42024571375
0.50386979676 1.11618761318 0.22890352634 0.420239987702
0.50565590195 1.11671966453 0.228763001036 0.42023448048
0.50744169791 1.11725014696 0.228622825103 0.420229457321
0.50922718548 1.11777949678 0.22848287258 0.420224832101
0.51101236292 1.1183075896 0.228343350955 0.420220889885
0.51279723107 1.11883374121 0.22820414947 0.42021750251
0.51458179334 1.11935900499 0.22806559098 0.420213874168
0.51636604801 1.11995006395 0.227920660904 0.420217287634
0.5181499972 1.12042081952 0.227781423439 0.420192054659
0.51993364046 1.12092516431 0.227650026038 0.42020569267
0.52171698383 1.12144219336 0.227512232966 0.420203610234
0.52350002688 1.12195948131 0.227374438497 0.420202203844
0.52528277044 1.12247463782 0.227236815881 0.420200689737
0.52706521799 1.12298798385 0.227099364802 0.420199472563
0.52884737169 1.12349972687 0.226962132978 0.420198503967
0.53062922979 1.1240098494 0.226825072662 0.420197808104
0.53241079448 1.1245186276 0.226688122045 0.420197240984
0.53419206398 1.12502552969 0.226551126966 0.420196585114
0.5359730405 1.12553171639 0.226414319212 0.420196630374
0.53775372488 1.12603601575 0.226277518459 0.420196630386
0.5395341167 1.12653910134 0.226140964784 0.420196913424
0.54131421814 1.12704092124 0.226004582568 0.420197421234
0.5430940314 1.12754120956 0.225868390133 0.420198165988
0.54487355208 1.12804026359 0.225732384234 0.420199185628
0.54665278502 1.12853763155 0.225596497335 0.420200275207
0.5484317311 1.12903456217 0.225460816807 0.420201635328
0.55021038856 1.12952961785 0.225325419202 0.420203085212
0.55198875961 1.1300232296 0.22519024021 0.420204781964
0.55376684514 1.13051585273 0.225055243841 0.420206454433
0.55554464471 1.13100672896 0.224920518242 0.420208259705
0.55732215653 1.13149685347 0.224786064249 0.420210662786
0.55909938418 1.13198503844 0.224651750982 0.420212949892
0.56087632854 1.13247192429 0.224517515026 0.420215130814
0.5626529865 1.13295753148 0.224383454842 0.42021753366
0.56442935758 1.13344317643 0.224249563047 0.420220230936
0.56620544675 1.13392792648 0.224115845143 0.420223187819
0.56798125084 1.13441077058 0.223982154333 0.420226015361
0.56975677348 1.1348927449 0.223848671553 0.420229079679
0.57153201285 1.13537337714 0.223715402219 0.420232338738
0.5733069685 1.13585340492 0.223582159608 0.420235764127
0.57508164134 1.1363318588 0.223448913496 0.420239044014
0.57685602956 1.1368093818 0.223315766893 0.420242551795
0.57863012997 1.13728556784 0.223182677649 0.420246023614
0.58040394212 1.13776041376 0.223049647985 0.420249475477
0.58217746554 1.1382347564 0.222917097003 0.42025335894
0.58395070387 1.13870765499 0.222784910323 0.420257407062
0.58572365667 1.13917940653 0.222652700197 0.420261435353
0.58749632483 1.13964991708 0.222520678331 0.420265415295
0.58926871067 1.14011924829 0.222388832865 0.42026930757
0.59104081233 1.14058768991 0.22225715307 0.420273385216
0.59281263212 1.14105450182 0.222125680802 0.420277245673
0.59458416819 1.14152026761 0.221994426951 0.420281302839
0.59635542424 1.14198545803 0.221863261237 0.420285414383
0.59812639981 1.14244882127 0.221732368347 0.420289406029
0.59989709582 1.14291090938 0.221601694922 0.420293655586
0.60166751181 1.14337198096 0.221471252468 0.420298016176
0.60343765011 1.14383175174 0.221341000954 0.420302335226
0.60520750887 1.14429084986 0.221210934534 0.420306744891
0.60697709041 1.14474893457 0.221081083096 0.420311233571
0.60874639288 1.14520603207 0.220951423293 0.420315736995
0.61051542003 1.14566285645 0.220821860687 0.420320479549
0.61228416857 1.14611831317 0.220692459438 0.420324972862
0.61405263944 1.14657273063 0.22056330526 0.420329846097
0.6158208336 1.14702620895 0.220434233918 0.42033432533
0.61758875198 1.1474794872 0.220305329839 0.420339165889
0.61935639413 1.14793114267 0.220176520438 0.420343728155
0.62112376383 1.14838196446 0.220047968313 0.420348678996
0.62289085494 1.14883205423 0.219919478099 0.420353465511
0.62465767267 1.14928105861 0.219791178406 0.420358317555
0.62642421657 1.14972959284 0.21966298018 0.420363274499
0.62819048901 1.15017732198 0.2195349316 0.420368303139
0.62995648666 1.1506240169 0.21940705784 0.420373416947
0.63172221193 1.15107006566 0.219279332889 0.420378520567
0.63348766578 1.15151521159 0.219151786286 0.420383596565
0.63525284774 1.15195948695 0.219024305997 0.420388659456
0.63701775734 1.15240300435 0.218897023379 0.420393798589
0.63878239699 1.15284575239 0.218769892985 0.420398919064
0.64054676768 1.15328767439 0.218642924078 0.420404094101
0.64231086892 1.15372890139 0.218516104519 0.420409302159
0.64407470025 1.15416938738 0.218389491949 0.420414496285
0.645838267 1.15460854276 0.218263036297 0.420419537769
0.64760156581 1.15504699785 0.218136711685 0.420424678184
0.64936459765 1.15548459382 0.218010611702 0.420429913192
0.65112736497 1.1559212943 0.217884668279 0.4204351414
0.65288986585 1.15635731031 0.217758838483 0.420440340005
0.65465210127 1.15679258616 0.217633205567 0.420445627104
0.6564140737 1.1572268279 0.217507707315 0.420450837785
0.65817577679 1.15766046509 0.217382405052 0.42045614167
0.65993721594 1.15809321984 0.217257267472 0.420461411016
0.66169839068 1.15852516488 0.217132253544 0.420466703396
0.6634592961 1.15895615889 0.217007388557 0.420471642192
0.66521993914 1.15938681221 0.216882762557 0.420476951011
0.66698031188 1.15981632401 0.21675840412 0.420482690787
0.66874042276 1.16024544994 0.216634038944 0.42048801005
0.67050026833 1.16067317704 0.216509795623 0.420492983551
0.67225985108 1.1611006581 0.216385721438 0.420498262729
0.67401916906 1.16152733683 0.216261710559 0.42050344101
0.67577822176 1.16195293774 0.216137896832 0.420508613908
0.67753701022 1.16237842397 0.216014626413 0.42051358963
0.67929553242 1.16279918171 0.215891356998 0.420516553759
0.68105379091 1.16322952516 0.215768563563 0.4205243767
0.6828117852 1.1636546442 0.215646033408 0.420530008331
0.6845695163 1.16407350501 0.215522967134 0.420532989585
0.68632698221 1.16449254085 0.215398862605 0.420538018236
0.688084187 1.16491445149 0.215276004831 0.420543720494
0.68984113018 1.16533730705 0.215153685076 0.420549781905
0.69159780821 1.16575581373 0.215031367544 0.420553952116
0.69335422823 1.16617391944 0.214909142677 0.420558546533
0.69511038058 1.16659291979 0.214787281663 0.42056370672
0.69686627701 1.1670103816 0.214665548668 0.420568381596
0.69862191089 1.16742701035 0.214544007593 0.420573040906
0.70037728328 1.16784293714 0.214422492097 0.420577098042
0.70213240137 1.16825808593 0.214301192775 0.420581667152
0.70388725541 1.16867346694 0.21418006915 0.420586647022
0.7056418542 1.1690870047 0.214059019752 0.420591147714
0.70739619878 1.16949890508 0.213938081842 0.420595250152
0.70915028091 1.16991169552 0.21381741684 0.420600225171
0.71090410941 1.17032461993 0.213696932578 0.420605652735
0.7126576838 1.17073595841 0.213576480787 0.420610360684
0.71441100202 1.17114581555 0.213456475663 0.4206149194
0.71616406202 1.171560839 0.213338059493 0.42062077622
0.71791686798 1.17196838084 0.213217964514 0.420625362355
0.71966941942 1.17237489394 0.213098030416 0.42062997978
0.72142171584 1.17278041271 0.212978250946 0.420634395402
0.72317375359 1.17318584747 0.212858672951 0.420639141498
0.72492553848 1.17358998429 0.212739191301 0.420643650044
0.72667707158 1.17399320544 0.212619726446 0.420647971876
0.72842835084 1.17439588027 0.212500443544 0.420652427336
0.73017937733 1.17479735689 0.212381288741 0.420656653092
0.73193015054 1.1751987116 0.212262203433 0.420660940641
0.73368067156 1.17559942106 0.212143407339 0.420665611381
0.7354309431 1.17599669191 0.212024460464 0.420668882895
0.73718096465 1.17639838266 0.211905967017 0.420674585534
0.73893073571 1.17679557524 0.211787355392 0.420678508383
0.74068025578 1.17719303324 0.211668992261 0.420682924706
0.74242952598 1.17758892412 0.211550698687 0.420687034743
0.74417854578 1.17798396347 0.211432511845 0.420691100942
0.74592731629 1.17837937035 0.211314525222 0.420695706126
0.7476758354 1.17877546584 0.211196471547 0.420700959232
0.74942410421 1.17916821054 0.211078670298 0.420705032301
0.75117212383 1.17956023613 0.210960935426 0.420709030608
0.75291989376 1.1799519394 0.210843388738 0.420713267925
0.7546674135 1.1803427254 0.210725904045 0.420717356127
0.75641468415 1.18073295228 0.210608561631 0.420721521957
0.75816170521 1.18112229016 0.210491325868 0.42072556204
0.75990847781 1.18151079042 0.210374222238 0.420729635972
0.76165500308 1.18189848852 0.210257246086 0.420733676974
0.76340127886 1.18228528775 0.210140367899 0.420737644671
0.76514730627 1.18267163301 0.210023674687 0.420741727063
0.7668930848 1.18305718548 0.209907006919 0.420745658083
0.76863861559 1.18344187697 0.209790484485 0.420749609212
0.77038389978 1.18382565737 0.209674072558 0.420753473329
0.77212893854 1.18420893777 0.209557792629 0.420757437769
0.77387373132 1.18459133867 0.209441621922 0.420761290225
0.77561827763 1.18497298795 0.209325557244 0.42076511927
0.77736257692 1.18535383854 0.209209627604 0.420768915954
0.77910663374 1.18573392567 0.209093808474 0.420772654792
0.78085044587 1.18611309114 0.208978134719 0.420776317885
0.7825940111 1.1864916859 0.208862616485 0.420780028615
0.78433733396 1.18686941784 0.208747274574 0.420783719078
0.78608041395 1.18724654155 0.208632061652 0.420787400155
0.78782325224 1.18762287546 0.208516969954 0.420791054413
0.78956585172 1.1879984148 0.208402077812 0.420794676433
0.79130821017 1.18837282345 0.208287633863 0.420798102746
0.79305032533 1.18874743517 0.208173552096 0.420801393116
0.7947921984 1.18912124599 0.208058900486 0.420805010933
0.79653382884 1.18949399415 0.207944683602 0.420808724097
0.7982752213 1.18986817587 0.207830542589 0.420812656613
0.80001637525 1.19023732665 0.20771647309 0.420815999248
0.80175728497 1.19060875022 0.207602540563 0.420819839582
0.80349795338 1.19097919876 0.207488682099 0.420823390311
0.80523838169 1.19134887809 0.207374959003 0.420826969061
0.80697856937 1.19171852201 0.207261333003 0.420830618323
0.80871851414 1.19208399477 0.207147538227 0.42083217235
0.81045821545 1.19245131535 0.207034036523 0.420835627774
0.81219767801 1.19282086363 0.206920813327 0.420840622912
0.81393690481 1.19318805707 0.206807627589 0.420844446066
0.81567589003 1.19355479385 0.206694484089 0.420848118596
0.81741463665 1.19392087225 0.206581401894 0.420851707019
0.81915315121 1.19428651601 0.206468428559 0.420855393084
0.8208914261 1.19465105692 0.206355514982 0.420858800535
0.82262946608 1.19501522939 0.206242788167 0.420862648478
0.82436727599 1.19537822338 0.206130049023 0.420866065839
0.82610484456 1.19574107719 0.20601747527 0.420869775722
0.82784218018 1.19610184263 0.205904944051 0.420872476852
0.82957928234 1.19646614267 0.205792767236 0.420877343794
0.83131614508 1.19682504297 0.205680433543 0.420879769031
0.83305277867 1.1971871589 0.205568394785 0.420884189521
0.83478917534 1.1975486593 0.205455946061 0.420888853694
0.83652533998 1.19790726966 0.205344243293 0.420892251222
0.83826127204 1.19826600214 0.205232569328 0.420895822123
0.83999696915 1.19862454957 0.205121016396 0.420899308644
0.84173243807 1.19898175244 0.205009587908 0.420902714969
0.84346767092 1.19933858811 0.204898219535 0.420906038193
0.84520267817 1.19969538413 0.204787211055 0.42090976894
0.84693744271 1.20005116633 0.204676214872 0.42091327284
0.84867198609 1.20040637133 0.204565353319 0.420916799435
0.85040628931 1.20076111982 0.204454672449 0.420920572444
0.85214037029 1.20111501339 0.20434404131 0.420923978181
0.85387421182 1.20146819949 0.204233538115 0.420927436187
0.85560783376 1.20182119644 0.204123187236 0.420931054161
0.85734122253 1.20217299672 0.204013048086 0.42093457428
0.85907438878 1.20252496556 0.203902989295 0.420938322224
0.8608073301 1.20287630561 0.20379307001 0.420941884316
0.86254004218 1.20322682747 0.203683265461 0.420945430064
0.86427253387 1.20357667282 0.203573642113 0.420949073584
0.86600478951 1.20392644772 0.203464058279 0.420952693124
0.86773682179 1.20427527335 0.203354601949 0.420956126005
0.86946862825 1.20462365975 0.203245325123 0.420959715698
0.87120020452 1.20497081081 0.203136186034 0.420963053073
0.87293155956 1.20531780455 0.203027239761 0.420966785181
0.8746626871 1.20566453285 0.202918399774 0.420970510872
0.87639359038 1.20601054031 0.202809649802 0.420974138724
0.87812427461 1.20635591772 0.202701023987 0.420977511095
0.87985473153 1.20670091001 0.202592617237 0.420981085651
0.88158496443 1.20704529106 0.202484294605 0.420984625984
0.88331497855 1.20738906549 0.202376123197 0.420987927496
0.88504476945 1.20773208567 0.202268107877 0.420991318476
0.88677433266 1.20807507021 0.20216023944 0.420994951442
0.88850368126 1.20841751242 0.202052511936 0.420998506971
0.89023281079 1.20875959602 0.201944902517 0.421002035615
0.89196171872 1.20910127728 0.201837506886 0.42100567885
0.89369040448 1.20944238835 0.201730178658 0.421009252603
0.89541887535 1.20978300199 0.201623003597 0.421012795286
0.89714712883 1.2101233591 0.201515994255 0.421016423305
0.8988751683 1.2104630447 0.201409122483 0.421019904455
0.90060298725 1.21080248574 0.201302442781 0.42102355576
0.90233058508 1.21114130065 0.20119577566 0.421027241208
0.9040579672 1.21147964929 0.201089217515 0.421030791276
0.90578513305 1.21181782529 0.200982806099 0.421034570436
0.90751208406 1.21215541786 0.20087653684 0.421038249044
0.90923881967 1.21249250272 0.200770406046 0.421041918318
0.91096534132 1.21282902429 0.200664428383 0.42104559153
0.91269164235 1.2131653039 0.200558643235 0.421049379895
0.91441773028 1.21350079991 0.200452945992 0.421053047143
0.91614360455 1.21383590198 0.20034744415 0.4210568292
0.9178692666 1.21417072703 0.200242024495 0.421060504392
0.91959471587 1.21450499912 0.200136831541 0.421064185871