# Forces         
# CofR           : (0.0000000000e+00 0.0000000000e+00 0.0000000000e+00)
# Time           forces(pressure viscous porous) moment(pressure viscous porous)
1.8010420168e+00	((1.9947833567e+00 1.6071169643e+01 1.8279920385e-19) (1.2380607388e-01 -8.5335670012e-05 -1.6628958055e-22) (0.0000000000e+00 0.0000000000e+00 0.0000000000e+00)) ((-8.0355848217e-01 9.9739167837e-02 5.1958770967e+00) (4.2667835006e-06 6.1903036941e-03 -6.3049287674e-03) (0.0000000000e+00 0.0000000000e+00 0.0000000000e+00))
1.8027226891e+00	((1.9946521864e+00 1.6071991064e+01 1.8276405011e-19) (1.2380632256e-01 -8.4016442605e-05 -1.6628325010e-22) (0.0000000000e+00 0.0000000000e+00 0.0000000000e+00)) ((-8.0359955318e-01 9.9732609321e-02 5.1959316123e+00) (4.2008221303e-06 6.1903161280e-03 -6.3051598874e-03) (0.0000000000e+00 0.0000000000e+00 0.0000000000e+00))
1.8044033613e+00	((1.9945171677e+00 1.6072816461e+01 1.8272941760e-19) (1.2380658132e-01 -8.2706798142e-05 -1.6627684654e-22) (0.0000000000e+00 0.0000000000e+00 0.0000000000e+00)) ((-8.0364082304e-01 9.9725858383e-02 5.1959889833e+00) (4.1353399071e-06 6.1903290662e-03 -6.3053874853e-03) (0.0000000000e+00 0.0000000000e+00 0.0000000000e+00))
1.8060840336e+00	((1.9943865253e+00 1.6073631785e+01 1.8269523865e-19) (1.2380684763e-01 -8.1402421363e-05 -1.6627062056e-22) (0.0000000000e+00 0.0000000000e+00 0.0000000000e+00)) ((-8.0368158926e-01 9.9719326263e-02 5.1960415920e+00) (4.0701210681e-06 6.1903423814e-03 -6.3056141816e-03) (0.0000000000e+00 0.0000000000e+00 0.0000000000e+00))
1.8077647059e+00	((1.9942523872e+00 1.6074451851e+01 1.8266082799e-19) (1.2380712300e-01 -8.0101967806e-05 -1.6626476510e-22) (0.0000000000e+00 0.0000000000e+00 0.0000000000e+00)) ((-8.0372259254e-01 9.9712619358e-02 5.1960986506e+00) (4.0050983903e-06 6.1903561499e-03 -6.3058399451e-03) (0.0000000000e+00 0.0000000000e+00 0.0000000000e+00))
1.8094453782e+00	((1.9941255121e+00 1.6075259291e+01 1.8262695367e-19) (1.2380741098e-01 -7.8810300634e-05 -1.6625893154e-22) (0.0000000000e+00 0.0000000000e+00 0.0000000000e+00)) ((-8.0376296454e-01 9.9706275606e-02 5.1961514271e+00) (3.9405150317e-06 6.1903705490e-03 -6.3060632940e-03) (0.0000000000e+00 0.0000000000e+00 0.0000000000e+00))
1.8111260504e+00	((1.9939942618e+00 1.6076065181e+01 1.8259249136e-19) (1.2380770969e-01 -7.7525365511e-05 -1.6625348092e-22) (0.0000000000e+00 0.0000000000e+00 0.0000000000e+00)) ((-8.0380325905e-01 9.9699713090e-02 5.1962026246e+00) (3.8762682756e-06 6.1903854847e-03 -6.3062845266e-03) (0.0000000000e+00 0.0000000000e+00 0.0000000000e+00))
1.8128067227e+00	((1.9938630707e+00 1.6076880330e+01 1.8255889312e-19) (1.2380801886e-01 -7.6245348850e-05 -1.6624834194e-22) (0.0000000000e+00 0.0000000000e+00 0.0000000000e+00)) ((-8.0384401648e-01 9.9693153534e-02 5.1962619072e+00) (3.8122674425e-06 6.1904009430e-03 -6.3065046185e-03) (0.0000000000e+00 0.0000000000e+00 0.0000000000e+00))
1.8144873950e+00	((1.9937374032e+00 1.6077675469e+01 1.8252540038e-19) (1.2380833831e-01 -7.4969632370e-05 -1.6624272288e-22) (0.0000000000e+00 0.0000000000e+00 0.0000000000e+00)) ((-8.0388377346e-01 9.9686870161e-02 5.1963101465e+00) (3.7484816185e-06 6.1904169155e-03 -6.3067236035e-03) (0.0000000000e+00 0.0000000000e+00 0.0000000000e+00))
1.8161680672e+00	((1.9936053750e+00 1.6078484796e+01 1.8249154950e-19) (1.2380866941e-01 -7.3698936441e-05 -1.6623785753e-22) (0.0000000000e+00 0.0000000000e+00 0.0000000000e+00)) ((-8.0392423979e-01 9.9680268750e-02 5.1963685766e+00) (3.6849468221e-06 6.1904334705e-03 -6.3069414844e-03) (0.0000000000e+00 0.0000000000e+00 0.0000000000e+00))
1.8178487395e+00	((1.9934826112e+00 1.6079277070e+01 1.8245861314e-19) (1.2380901296e-01 -7.2434918377e-05 -1.6623237386e-22) (0.0000000000e+00 0.0000000000e+00 0.0000000000e+00)) ((-8.0396385351e-01 9.9674130562e-02 5.1964198929e+00) (3.6217459188e-06 6.1904506482e-03 -6.3071578748e-03) (0.0000000000e+00 0.0000000000e+00 0.0000000000e+00))
1.8195294118e+00	((1.9933562831e+00 1.6080065607e+01 1.8242506488e-19) (1.2380936929e-01 -7.1178624699e-05 -1.6622726652e-22) (0.0000000000e+00 0.0000000000e+00 0.0000000000e+00)) ((-8.0400328033e-01 9.9667814154e-02 5.1964686136e+00) (3.5589312350e-06 6.1904684646e-03 -6.3073719736e-03) (0.0000000000e+00 0.0000000000e+00 0.0000000000e+00))
1.8212100840e+00	((1.9932275371e+00 1.6080866818e+01 1.8239203643e-19) (1.2380973644e-01 -6.9926859210e-05 -1.6622245972e-22) (0.0000000000e+00 0.0000000000e+00 0.0000000000e+00)) ((-8.0404334088e-01 9.9661376853e-02 5.1965274744e+00) (3.4963429605e-06 6.1904868222e-03 -6.3075852518e-03) (0.0000000000e+00 0.0000000000e+00 0.0000000000e+00))
1.8228907563e+00	((1.9931068680e+00 1.6081643041e+01 1.8235936399e-19) (1.2381011264e-01 -6.8681818624e-05 -1.6621852504e-22) (0.0000000000e+00 0.0000000000e+00 0.0000000000e+00)) ((-8.0408215206e-01 9.9655343401e-02 5.1965720921e+00) (3.4340909312e-06 6.1905056319e-03 -6.3077966095e-03) (0.0000000000e+00 0.0000000000e+00 0.0000000000e+00))
1.8245714286e+00	((1.9929762849e+00 1.6082442182e+01 1.8232609530e-19) (1.2381049788e-01 -6.7444429432e-05 -1.6621561073e-22) (0.0000000000e+00 0.0000000000e+00 0.0000000000e+00)) ((-8.0412210912e-01 9.9648814243e-02 5.1966319614e+00) (3.3722214716e-06 6.1905248942e-03 -6.3080055885e-03) (0.0000000000e+00 0.0000000000e+00 0.0000000000e+00))
1.8262521008e+00	((1.9928570403e+00 1.6083216855e+01 1.8229413503e-19) (1.2381089356e-01 -6.6213576026e-05 -1.6621183029e-22) (0.0000000000e+00 0.0000000000e+00 0.0000000000e+00)) ((-8.0416084277e-01 9.9642852014e-02 5.1966794867e+00) (3.3106788013e-06 6.1905446779e-03 -6.3082131540e-03) (0.0000000000e+00 0.0000000000e+00 0.0000000000e+00))
1.8279327731e+00	((1.9927319839e+00 1.6083993653e+01 1.8226094045e-19) (1.2381130003e-01 -6.4988224207e-05 -1.6620836911e-22) (0.0000000000e+00 0.0000000000e+00 0.0000000000e+00)) ((-8.0419968264e-01 9.9636599194e-02 5.1967282890e+00) (3.2494112103e-06 6.1905650016e-03 -6.3084190824e-03) (0.0000000000e+00 0.0000000000e+00 0.0000000000e+00))
1.8296134454e+00	((1.9926070606e+00 1.6084780330e+01 1.8222889887e-19) (1.2381171833e-01 -6.3769144761e-05 -1.6620520762e-22) (0.0000000000e+00 0.0000000000e+00 0.0000000000e+00)) ((-8.0423901648e-01 9.9630353030e-02 5.1967864102e+00) (3.1884572381e-06 6.1905859165e-03 -6.3086238908e-03) (0.0000000000e+00 0.0000000000e+00 0.0000000000e+00))
1.8312936957e+00	((1.9924852741e+00 1.6085546444e+01 1.8218596613e-19) (1.2381245595e-01 -6.2677259932e-05 -1.6599338273e-22) (0.0000000000e+00 0.0000000000e+00 0.0000000000e+00)) ((-8.0427732219e-01 9.9624263705e-02 5.1968319575e+00) (3.1338629966e-06 6.1906227973e-03 -6.3088947805e-03) (0.0000000000e+00 0.0000000000e+00 0.0000000000e+00))
1.8329735564e+00	((1.9923650548e+00 1.6086317142e+01 1.8215241379e-19) (1.2381295501e-01 -6.1475078408e-05 -1.6599023749e-22) (0.0000000000e+00 0.0000000000e+00 0.0000000000e+00)) ((-8.0431585712e-01 9.9618252740e-02 5.1968849017e+00) (3.0737539204e-06 6.1906477505e-03 -6.3091101708e-03) (0.0000000000e+00 0.0000000000e+00 0.0000000000e+00))
1.8346534171e+00	((1.9922473187e+00 1.6087069952e+01 1.8212036433e-19) (1.2381345147e-01 -6.0273902674e-05 -1.6598446038e-22) (0.0000000000e+00 0.0000000000e+00 0.0000000000e+00)) ((-8.0435349760e-01 9.9612365936e-02 5.1969253495e+00) (3.0136951337e-06 6.1906725733e-03 -6.3093164548e-03) (0.0000000000e+00 0.0000000000e+00 0.0000000000e+00))
1.8363332779e+00	((1.9921197441e+00 1.6087854000e+01 1.8208838577e-19) (1.2381394641e-01 -5.9082047278e-05 -1.6598147682e-22) (0.0000000000e+00 0.0000000000e+00 0.0000000000e+00)) ((-8.0439270000e-01 9.9605987207e-02 5.1969875540e+00) (2.9541023639e-06 6.1906973207e-03 -6.3095219075e-03) (0.0000000000e+00 0.0000000000e+00 0.0000000000e+00))
1.8380131386e+00	((1.9920091747e+00 1.6088595091e+01 1.8205744714e-19) (1.2381444145e-01 -5.7894727961e-05 -1.6597734818e-22) (0.0000000000e+00 0.0000000000e+00 0.0000000000e+00)) ((-8.0442975454e-01 9.9600458735e-02 5.1970252090e+00) (2.8947363980e-06 6.1907220726e-03 -6.3097255988e-03) (0.0000000000e+00 0.0000000000e+00 0.0000000000e+00))
1.8396929994e+00	((1.9918828833e+00 1.6089363637e+01 1.8202471371e-19) (1.2381493896e-01 -5.6714018242e-05 -1.6597509534e-22) (0.0000000000e+00 0.0000000000e+00 0.0000000000e+00)) ((-8.0446818186e-01 9.9594144164e-02 5.1970797683e+00) (2.8357009121e-06 6.1907469478e-03 -6.3099266091e-03) (0.0000000000e+00 0.0000000000e+00 0.0000000000e+00))
1.8413728601e+00	((1.9917663098e+00 1.6090121196e+01 1.8199410001e-19) (1.2381544081e-01 -5.5538312444e-05 -1.6597242030e-22) (0.0000000000e+00 0.0000000000e+00 0.0000000000e+00)) ((-8.0450605982e-01 9.9588315491e-02 5.1971307781e+00) (2.7769156222e-06 6.1907720406e-03 -6.3101268093e-03) (0.0000000000e+00 0.0000000000e+00 0.0000000000e+00))
1.8430527208e+00	((1.9916496088e+00 1.6090861347e+01 1.8196239493e-19) (1.2381594686e-01 -5.4367934655e-05 -1.6596992902e-22) (0.0000000000e+00 0.0000000000e+00 0.0000000000e+00)) ((-8.0454306735e-01 9.9582480438e-02 5.1971695591e+00) (2.7183967327e-06 6.1907973430e-03 -6.3103244264e-03) (0.0000000000e+00 0.0000000000e+00 0.0000000000e+00))
1.8447325816e+00	((1.9915247573e+00 1.6091636495e+01 1.8193113959e-19) (1.2381646035e-01 -5.3204198094e-05 -1.6596838265e-22) (0.0000000000e+00 0.0000000000e+00 0.0000000000e+00)) ((-8.0458182476e-01 9.9576237864e-02 5.1972337785e+00) (2.6602099047e-06 6.1908230175e-03 -6.3105198156e-03) (0.0000000000e+00 0.0000000000e+00 0.0000000000e+00))
1.8464124423e+00	((1.9914193753e+00 1.6092359805e+01 1.8190096428e-19) (1.2381698013e-01 -5.2044885407e-05 -1.6596521520e-22) (0.0000000000e+00 0.0000000000e+00 0.0000000000e+00)) ((-8.0461799025e-01 9.9570968763e-02 5.1972673611e+00) (2.6022442704e-06 6.1908490067e-03 -6.3107142707e-03) (0.0000000000e+00 0.0000000000e+00 0.0000000000e+00))
1.8480923031e+00	((1.9912943739e+00 1.6093123149e+01 1.8186896277e-19) (1.2381750754e-01 -5.0890132261e-05 -1.6596369774e-22) (0.0000000000e+00 0.0000000000e+00 0.0000000000e+00)) ((-8.0465615746e-01 9.9564718693e-02 5.1973256574e+00) (2.5445066130e-06 6.1908753770e-03 -6.3109068514e-03) (0.0000000000e+00 0.0000000000e+00 0.0000000000e+00))
1.8497721638e+00	((1.9911855136e+00 1.6093862288e+01 1.8183957190e-19) (1.2381804205e-01 -4.9741140617e-05 -1.6596125771e-22) (0.0000000000e+00 0.0000000000e+00 0.0000000000e+00)) ((-8.0469311438e-01 9.9559275681e-02 5.1973733432e+00) (2.4870570308e-06 6.1909021027e-03 -6.3110984186e-03) (0.0000000000e+00 0.0000000000e+00 0.0000000000e+00))
1.8514520246e+00	((1.9910723618e+00 1.6094587277e+01 1.8180825105e-19) (1.2381858266e-01 -4.8595741142e-05 -1.6595879788e-22) (0.0000000000e+00 0.0000000000e+00 0.0000000000e+00)) ((-8.0472936383e-01 9.9553618090e-02 5.1974110650e+00) (2.4297870571e-06 6.1909291331e-03 -6.3112884495e-03) (0.0000000000e+00 0.0000000000e+00 0.0000000000e+00))
1.8531318853e+00	((1.9909503017e+00 1.6095350293e+01 1.8177787724e-19) (1.2381913299e-01 -4.7455530140e-05 -1.6595762394e-22) (0.0000000000e+00 0.0000000000e+00 0.0000000000e+00)) ((-8.0476751465e-01 9.9547515084e-02 5.1974754079e+00) (2.3727765070e-06 6.1909566493e-03 -6.3114778092e-03) (0.0000000000e+00 0.0000000000e+00 0.0000000000e+00))
1.8548117460e+00	((1.9908489139e+00 1.6096056240e+01 1.8174831253e-19) (1.2381968962e-01 -4.6318815913e-05 -1.6595473666e-22) (0.0000000000e+00 0.0000000000e+00 0.0000000000e+00)) ((-8.0480281200e-01 9.9542445695e-02 5.1975053105e+00) (2.3159407957e-06 6.1909844811e-03 -6.3116665335e-03) (0.0000000000e+00 0.0000000000e+00 0.0000000000e+00))
1.8564916068e+00	((1.9907219765e+00 1.6096812915e+01 1.8171684207e-19) (1.2382025515e-01 -4.5190486623e-05 -1.6595398935e-22) (0.0000000000e+00 0.0000000000e+00 0.0000000000e+00)) ((-8.0484064577e-01 9.9536098824e-02 5.1975660096e+00) (2.2595243311e-06 6.1910127574e-03 -6.3118524310e-03) (0.0000000000e+00 0.0000000000e+00 0.0000000000e+00))
1.8581714675e+00	((1.9906187653e+00 1.6097529535e+01 1.8168820708e-19) (1.2382082871e-01 -4.4068931773e-05 -1.6595153290e-22) (0.0000000000e+00 0.0000000000e+00 0.0000000000e+00)) ((-8.0487647675e-01 9.9530938265e-02 5.1976073377e+00) (2.2034465887e-06 6.1910414354e-03 -6.3120373552e-03) (0.0000000000e+00 0.0000000000e+00 0.0000000000e+00))
1.8598513283e+00	((1.9905069156e+00 1.6098242845e+01 1.8165721124e-19) (1.2382141525e-01 -4.2943219381e-05 -1.6595040184e-22) (0.0000000000e+00 0.0000000000e+00 0.0000000000e+00)) ((-8.0491214227e-01 9.9525345780e-02 5.1976446145e+00) (2.1471609691e-06 6.1910707624e-03 -6.3122249081e-03) (0.0000000000e+00 0.0000000000e+00 0.0000000000e+00))
1.8615311890e+00	((1.9903876857e+00 1.6098991108e+01 1.8162750887e-19) (1.2382201417e-01 -4.1816532392e-05 -1.6595098671e-22) (0.0000000000e+00 0.0000000000e+00 0.0000000000e+00)) ((-8.0494955540e-01 9.9519384284e-02 5.1977078095e+00) (2.0908266196e-06 6.1911007086e-03 -6.3124146630e-03) (0.0000000000e+00 0.0000000000e+00 0.0000000000e+00))
1.8632110498e+00	((1.9902911789e+00 1.6099676934e+01 1.8159860871e-19) (1.2382261882e-01 -4.0693276174e-05 -1.6594985246e-22) (0.0000000000e+00 0.0000000000e+00 0.0000000000e+00)) ((-8.0498384668e-01 9.9514558946e-02 5.1977324226e+00) (2.0346638087e-06 6.1911309411e-03 -6.3126037435e-03) (0.0000000000e+00 0.0000000000e+00 0.0000000000e+00))
1.8648909105e+00	((1.9901629321e+00 1.6100429049e+01 1.8156757060e-19) (1.2382323225e-01 -3.9578084783e-05 -1.6595128374e-22) (0.0000000000e+00 0.0000000000e+00 0.0000000000e+00)) ((-8.0502145243e-01 9.9508146604e-02 5.1977971724e+00) (1.9789042391e-06 6.1911616124e-03 -6.3127903011e-03) (0.0000000000e+00 0.0000000000e+00 0.0000000000e+00))
1.8665707712e+00	((1.9900659685e+00 1.6101124195e+01 1.8153981588e-19) (1.2382385332e-01 -3.8470482307e-05 -1.6595038810e-22) (0.0000000000e+00 0.0000000000e+00 0.0000000000e+00)) ((-8.0505620976e-01 9.9503298423e-02 5.1978325479e+00) (1.9235241154e-06 6.1911926658e-03 -6.3129758776e-03) (0.0000000000e+00 0.0000000000e+00 0.0000000000e+00))
1.8682506320e+00	((1.9899540658e+00 1.6101826815e+01 1.8150907320e-19) (1.2382448071e-01 -3.7364423849e-05 -1.6595047804e-22) (0.0000000000e+00 0.0000000000e+00 0.0000000000e+00)) ((-8.0509134073e-01 9.9497703288e-02 5.1978703131e+00) (1.8682211924e-06 6.1912240354e-03 -6.3131608722e-03) (0.0000000000e+00 0.0000000000e+00 0.0000000000e+00))
1.8699304927e+00	((1.9898400629e+00 1.6102563935e+01 1.8148041142e-19) (1.2382511709e-01 -3.6261443934e-05 -1.6595133135e-22) (0.0000000000e+00 0.0000000000e+00 0.0000000000e+00)) ((-8.0512819673e-01 9.9492003145e-02 5.1979338530e+00) (1.8130721967e-06 6.1912558544e-03 -6.3133464355e-03) (0.0000000000e+00 0.0000000000e+00 0.0000000000e+00))
1.8716103535e+00	((1.9897439509e+00 1.6103231203e+01 1.8145185134e-19) (1.2382575861e-01 -3.5167889644e-05 -1.6595033052e-22) (0.0000000000e+00 0.0000000000e+00 0.0000000000e+00)) ((-8.0516156017e-01 9.9487197544e-02 5.1979526097e+00) (1.7583944822e-06 6.1912879303e-03 -6.3135291645e-03) (0.0000000000e+00 0.0000000000e+00 0.0000000000e+00))
1.8732902142e+00	((1.9896181108e+00 1.6103976467e+01 1.8142129341e-19) (1.2382640910e-01 -3.4079801028e-05 -1.6595188444e-22) (0.0000000000e+00 0.0000000000e+00 0.0000000000e+00)) ((-8.0519882337e-01 9.9480905541e-02 5.1980211928e+00) (1.7039900514e-06 6.1913204550e-03 -6.3137107331e-03) (0.0000000000e+00 0.0000000000e+00 0.0000000000e+00))
1.8749700749e+00	((1.9895271593e+00 1.6104646873e+01 1.8139433262e-19) (1.2382706612e-01 -3.2994890663e-05 -1.6595082539e-22) (0.0000000000e+00 0.0000000000e+00 0.0000000000e+00)) ((-8.0523234367e-01 9.9476357964e-02 5.1980484788e+00) (1.6497445332e-06 6.1913533062e-03 -6.3138929308e-03) (0.0000000000e+00 0.0000000000e+00 0.0000000000e+00))
1.8766499357e+00	((1.9894125150e+00 1.6105349445e+01 1.8136399046e-19) (1.2382772835e-01 -3.1912772686e-05 -1.6595172365e-22) (0.0000000000e+00 0.0000000000e+00 0.0000000000e+00)) ((-8.0526747227e-01 9.9470625752e-02 5.1980913422e+00) (1.5956386343e-06 6.1913864175e-03 -6.3140735778e-03) (0.0000000000e+00 0.0000000000e+00 0.0000000000e+00))
1.8783297964e+00	((1.9893034401e+00 1.6106067369e+01 1.8133616963e-19) (1.2382839947e-01 -3.0843356559e-05 -1.6595244729e-22) (0.0000000000e+00 0.0000000000e+00 0.0000000000e+00)) ((-8.0530336847e-01 9.9465172005e-02 5.1981509961e+00) (1.5421678280e-06 6.1914199733e-03 -6.3142517025e-03) (0.0000000000e+00 0.0000000000e+00 0.0000000000e+00))
1.8800096572e+00	((1.9892125778e+00 1.6106714247e+01 1.8130795456e-19) (1.2382907501e-01 -2.9775590106e-05 -1.6595125713e-22) (0.0000000000e+00 0.0000000000e+00 0.0000000000e+00)) ((-8.0533571234e-01 9.9460628888e-02 5.1981656360e+00) (1.4887795053e-06 6.1914537503e-03 -6.3144295637e-03) (0.0000000000e+00 0.0000000000e+00 0.0000000000e+00))
1.8816895179e+00	((1.9890848686e+00 1.6107458207e+01 1.8127816582e-19) (1.2382975810e-01 -2.8708701819e-05 -1.6595357649e-22) (0.0000000000e+00 0.0000000000e+00 0.0000000000e+00)) ((-8.0537291037e-01 9.9454243429e-02 5.1982394952e+00) (1.4354350910e-06 6.1914879048e-03 -6.3146074518e-03) (0.0000000000e+00 0.0000000000e+00 0.0000000000e+00))
1.8833693787e+00	((1.9890005552e+00 1.6108107372e+01 1.8125203958e-19) (1.2383045886e-01 -2.7650096272e-05 -1.6595317933e-22) (0.0000000000e+00 0.0000000000e+00 0.0000000000e+00)) ((-8.0540536861e-01 9.9450027758e-02 5.1982608222e+00) (1.3825048136e-06 6.1915229432e-03 -6.3147857955e-03) (0.0000000000e+00 0.0000000000e+00 0.0000000000e+00))
1.8850492394e+00	((1.9888860449e+00 1.6108800377e+01 1.8122184859e-19) (1.2383116578e-01 -2.6592831005e-05 -1.6595506665e-22) (0.0000000000e+00 0.0000000000e+00 0.0000000000e+00)) ((-8.0544001886e-01 9.9444302243e-02 5.1983055295e+00) (1.3296415502e-06 6.1915582892e-03 -6.3149632827e-03) (0.0000000000e+00 0.0000000000e+00 0.0000000000e+00))
1.8867291001e+00	((1.9887802434e+00 1.6109506566e+01 1.8119520267e-19) (1.2383188038e-01 -2.5538995708e-05 -1.6595709374e-22) (0.0000000000e+00 0.0000000000e+00 0.0000000000e+00)) ((-8.0547532829e-01 9.9439012168e-02 5.1983633866e+00) (1.2769497854e-06 6.1915940189e-03 -6.3151412046e-03) (0.0000000000e+00 0.0000000000e+00 0.0000000000e+00))
1.8884089609e+00	((1.9886913546e+00 1.6110140344e+01 1.8116727974e-19) (1.2383259927e-01 -2.4497602937e-05 -1.6595720978e-22) (0.0000000000e+00 0.0000000000e+00 0.0000000000e+00)) ((-8.0550701718e-01 9.9434567728e-02 5.1983754791e+00) (1.2248801469e-06 6.1916299633e-03 -6.3153148783e-03) (0.0000000000e+00 0.0000000000e+00 0.0000000000e+00))
1.8900888216e+00	((1.9885662450e+00 1.6110871485e+01 1.8113798028e-19) (1.2383332760e-01 -2.3456053843e-05 -1.6596048683e-22) (0.0000000000e+00 0.0000000000e+00 0.0000000000e+00)) ((-8.0554357426e-01 9.9428312249e-02 5.1984498247e+00) (1.1728026922e-06 6.1916663800e-03 -6.3154896280e-03) (0.0000000000e+00 0.0000000000e+00 0.0000000000e+00))
1.8917686824e+00	((1.9884863419e+00 1.6111504194e+01 1.8111273446e-19) (1.2383405904e-01 -2.2418202550e-05 -1.6596070448e-22) (0.0000000000e+00 0.0000000000e+00 0.0000000000e+00)) ((-8.0557520971e-01 9.9424317094e-02 5.1984658678e+00) (1.1209101275e-06 6.1917029518e-03 -6.3156640114e-03) (0.0000000000e+00 0.0000000000e+00 0.0000000000e+00))
1.8934485431e+00	((1.9883705433e+00 1.6112195324e+01 1.8108283654e-19) (1.2383479652e-01 -2.1388196120e-05 -1.6596322138e-22) (0.0000000000e+00 0.0000000000e+00 0.0000000000e+00)) ((-8.0560976620e-01 9.9418527164e-02 5.1985158138e+00) (1.0694098060e-06 6.1917398261e-03 -6.3158349813e-03) (0.0000000000e+00 0.0000000000e+00 0.0000000000e+00))
1.8951284038e+00	((1.9882731204e+00 1.6112879080e+01 1.8105717576e-19) (1.2383554304e-01 -2.0357942466e-05 -1.6596474535e-22) (0.0000000000e+00 0.0000000000e+00 0.0000000000e+00)) ((-8.0564395399e-01 9.9413656018e-02 5.1985685996e+00) (1.0178971233e-06 6.1917771520e-03 -6.3160078589e-03) (0.0000000000e+00 0.0000000000e+00 0.0000000000e+00))
1.8968082646e+00	((1.9881824351e+00 1.6113504015e+01 1.8102950939e-19) (1.2383629112e-01 -1.9336569406e-05 -1.6596494875e-22) (0.0000000000e+00 0.0000000000e+00 0.0000000000e+00)) ((-8.0567520073e-01 9.9409121756e-02 5.1985799321e+00) (9.6682847032e-07 6.1918145562e-03 -6.3161766617e-03) (0.0000000000e+00 0.0000000000e+00 0.0000000000e+00))
1.8984881253e+00	((1.9880589759e+00 1.6114228936e+01 1.8100090243e-19) (1.2383704977e-01 -1.8317399100e-05 -1.6596802000e-22) (0.0000000000e+00 0.0000000000e+00 0.0000000000e+00)) ((-8.0571144680e-01 9.9402948793e-02 5.1986572758e+00) (9.1586995501e-07 6.1918524883e-03 -6.3163459063e-03) (0.0000000000e+00 0.0000000000e+00 0.0000000000e+00))
