# Forces         
# CofR           : (0.0000000000e+00 0.0000000000e+00 0.0000000000e+00)
# Time           forces(pressure viscous porous) moment(pressure viscous porous)
1.5004782609e+00	((5.4103649686e+00 3.0836622733e+01 -1.7768797408e-18) (1.4236001085e-01 -1.4368028624e-02 1.0865761142e-21) (0.0000000000e+00 0.0000000000e+00 0.0000000000e+00)) ((-1.5418311366e+00 2.7051824843e-01 8.9822471960e+00) (7.1840143118e-04 7.1180005425e-03 -3.1963583160e-02) (0.0000000000e+00 0.0000000000e+00 0.0000000000e+00))
1.5015652078e+00	((5.4100078568e+00 3.0837244036e+01 -1.7769557437e-18) (1.4235738752e-01 -1.4365795274e-02 1.0865541945e-21) (0.0000000000e+00 0.0000000000e+00 0.0000000000e+00)) ((-1.5418622018e+00 2.7050039284e-01 8.9822103030e+00) (7.1828976372e-04 7.1178693761e-03 -3.1962860977e-02) (0.0000000000e+00 0.0000000000e+00 0.0000000000e+00))
1.5026519244e+00	((5.4096375671e+00 3.0837823947e+01 -1.7770348891e-18) (1.4235480921e-01 -1.4363632250e-02 1.0866287984e-21) (0.0000000000e+00 0.0000000000e+00 0.0000000000e+00)) ((-1.5418911973e+00 2.7048187835e-01 8.9821495172e+00) (7.1818161252e-04 7.1177404604e-03 -3.1962199818e-02) (0.0000000000e+00 0.0000000000e+00 0.0000000000e+00))
1.5037386411e+00	((5.4092952643e+00 3.0838431173e+01 -1.7771106486e-18) (1.4235223823e-01 -1.4361437583e-02 1.0866909417e-21) (0.0000000000e+00 0.0000000000e+00 0.0000000000e+00)) ((-1.5419215586e+00 2.7046476322e-01 8.9821303174e+00) (7.1807187913e-04 7.1176119117e-03 -3.1961524389e-02) (0.0000000000e+00 0.0000000000e+00 0.0000000000e+00))
1.5048253577e+00	((5.4089368695e+00 3.0839017163e+01 -1.7771865618e-18) (1.4234969523e-01 -1.4359252406e-02 1.0867568987e-21) (0.0000000000e+00 0.0000000000e+00 0.0000000000e+00)) ((-1.5419508582e+00 2.7044684348e-01 8.9820817576e+00) (7.1796262028e-04 7.1174847616e-03 -3.1960857157e-02) (0.0000000000e+00 0.0000000000e+00 0.0000000000e+00))
1.5059120743e+00	((5.4085803002e+00 3.0839573949e+01 -1.7772598604e-18) (1.4234717998e-01 -1.4357085594e-02 1.0868246998e-21) (0.0000000000e+00 0.0000000000e+00 0.0000000000e+00)) ((-1.5419786974e+00 2.7042901501e-01 8.9820250397e+00) (7.1785427969e-04 7.1173589988e-03 -3.1960196214e-02) (0.0000000000e+00 0.0000000000e+00 0.0000000000e+00))
1.5069987909e+00	((5.4082204549e+00 3.0840155576e+01 -1.7773351489e-18) (1.4234469196e-01 -1.4354934189e-02 1.0868908626e-21) (0.0000000000e+00 0.0000000000e+00 0.0000000000e+00)) ((-1.5420077788e+00 2.7041102275e-01 8.9819702183e+00) (7.1774670943e-04 7.1172345978e-03 -3.1959542277e-02) (0.0000000000e+00 0.0000000000e+00 0.0000000000e+00))
1.5080853090e+00	((5.4078674772e+00 3.0840725686e+01 -1.7774135648e-18) (1.4234227620e-01 -1.4352830133e-02 1.0868803876e-21) (0.0000000000e+00 0.0000000000e+00 0.0000000000e+00)) ((-1.5420362843e+00 2.7039337386e-01 8.9819192079e+00) (7.1764150666e-04 7.1171138098e-03 -3.1958926833e-02) (0.0000000000e+00 0.0000000000e+00 0.0000000000e+00))
1.5091717711e+00	((5.4075225664e+00 3.0841286826e+01 -1.7774858787e-18) (1.4233985504e-01 -1.4350697988e-02 1.0869456779e-21) (0.0000000000e+00 0.0000000000e+00 0.0000000000e+00)) ((-1.5420643413e+00 2.7037612832e-01 8.9818754834e+00) (7.1753489942e-04 7.1169927522e-03 -3.1958292013e-02) (0.0000000000e+00 0.0000000000e+00 0.0000000000e+00))
1.5102582331e+00	((5.4071699840e+00 3.0841845511e+01 -1.7775595169e-18) (1.4233745874e-01 -1.4348582253e-02 1.0870122113e-21) (0.0000000000e+00 0.0000000000e+00 0.0000000000e+00)) ((-1.5420922755e+00 2.7035849920e-01 8.9818193472e+00) (7.1742911266e-04 7.1168729371e-03 -3.1957661536e-02) (0.0000000000e+00 0.0000000000e+00 0.0000000000e+00))
1.5113446952e+00	((5.4068233150e+00 3.0842408694e+01 -1.7776324547e-18) (1.4233508326e-01 -1.4346484962e-02 1.0870760073e-21) (0.0000000000e+00 0.0000000000e+00 0.0000000000e+00)) ((-1.5421204347e+00 2.7034116575e-01 8.9817701467e+00) (7.1732424808e-04 7.1167541629e-03 -3.1957037163e-02) (0.0000000000e+00 0.0000000000e+00 0.0000000000e+00))
1.5124311573e+00	((5.4064737455e+00 3.0842960502e+01 -1.7777063908e-18) (1.4233272959e-01 -1.4344406222e-02 1.0871417752e-21) (0.0000000000e+00 0.0000000000e+00 0.0000000000e+00)) ((-1.5421480251e+00 2.7032368728e-01 8.9817112594e+00) (7.1722031110e-04 7.1166364797e-03 -3.1956418799e-02) (0.0000000000e+00 0.0000000000e+00 0.0000000000e+00))
1.5135176194e+00	((5.4061373979e+00 3.0843506778e+01 -1.7777771022e-18) (1.4233039608e-01 -1.4342347045e-02 1.0872039379e-21) (0.0000000000e+00 0.0000000000e+00 0.0000000000e+00)) ((-1.5421753389e+00 2.7030686990e-01 8.9816701055e+00) (7.1711735227e-04 7.1165198038e-03 -3.1955805963e-02) (0.0000000000e+00 0.0000000000e+00 0.0000000000e+00))
1.5146038085e+00	((5.4058002774e+00 3.0844046428e+01 -1.7778513044e-18) (1.4232812987e-01 -1.4340351340e-02 1.0871857088e-21) (0.0000000000e+00 0.0000000000e+00 0.0000000000e+00)) ((-1.5422023214e+00 2.7029001387e-01 8.9816259128e+00) (7.1701756700e-04 7.1164064935e-03 -3.1955231983e-02) (0.0000000000e+00 0.0000000000e+00 0.0000000000e+00))
1.5156899977e+00	((5.4054658471e+00 3.0844590256e+01 -1.7779240811e-18) (1.4232585228e-01 -1.4338314505e-02 1.0872501772e-21) (0.0000000000e+00 0.0000000000e+00 0.0000000000e+00)) ((-1.5422295128e+00 2.7027329236e-01 8.9815770922e+00) (7.1691572527e-04 7.1162926142e-03 -3.1954634333e-02) (0.0000000000e+00 0.0000000000e+00 0.0000000000e+00))
1.5167761868e+00	((5.4051157231e+00 3.0845121919e+01 -1.7779958298e-18) (1.4232358997e-01 -1.4336300930e-02 1.0873158501e-21) (0.0000000000e+00 0.0000000000e+00 0.0000000000e+00)) ((-1.5422560959e+00 2.7025578615e-01 8.9815080832e+00) (7.1681504651e-04 7.1161794983e-03 -3.1954040086e-02) (0.0000000000e+00 0.0000000000e+00 0.0000000000e+00))
1.5178623760e+00	((5.4047709089e+00 3.0845640654e+01 -1.7780669332e-18) (1.4232134718e-01 -1.4334305376e-02 1.0873819148e-21) (0.0000000000e+00 0.0000000000e+00 0.0000000000e+00)) ((-1.5422820327e+00 2.7023854545e-01 8.9814394010e+00) (7.1671526880e-04 7.1160673591e-03 -3.1953451431e-02) (0.0000000000e+00 0.0000000000e+00 0.0000000000e+00))
1.5189485651e+00	((5.4044637253e+00 3.0846185387e+01 -1.7781348665e-18) (1.4231912113e-01 -1.4332324489e-02 1.0874398368e-21) (0.0000000000e+00 0.0000000000e+00 0.0000000000e+00)) ((-1.5423092694e+00 2.7022318626e-01 8.9814314812e+00) (7.1661622443e-04 7.1159560566e-03 -3.1952868038e-02) (0.0000000000e+00 0.0000000000e+00 0.0000000000e+00))
1.5200347543e+00	((5.4041313812e+00 3.0846704874e+01 -1.7782045441e-18) (1.4231690958e-01 -1.4330364260e-02 1.0875034025e-21) (0.0000000000e+00 0.0000000000e+00 0.0000000000e+00)) ((-1.5423352437e+00 2.7020656906e-01 8.9813776276e+00) (7.1651821301e-04 7.1158454790e-03 -3.1952289287e-02) (0.0000000000e+00 0.0000000000e+00 0.0000000000e+00))
1.5211207773e+00	((5.4037887738e+00 3.0847205058e+01 -1.7782764817e-18) (1.4231476406e-01 -1.4328458837e-02 1.0874799549e-21) (0.0000000000e+00 0.0000000000e+00 0.0000000000e+00)) ((-1.5423602529e+00 2.7018943869e-01 8.9813044149e+00) (7.1642294183e-04 7.1157382029e-03 -3.1951748845e-02) (0.0000000000e+00 0.0000000000e+00 0.0000000000e+00))
1.5222066696e+00	((5.4034738386e+00 3.0847724567e+01 -1.7783462825e-18) (1.4231260368e-01 -1.4326519877e-02 1.0875419571e-21) (0.0000000000e+00 0.0000000000e+00 0.0000000000e+00)) ((-1.5423862284e+00 2.7017369193e-01 8.9812662508e+00) (7.1632599384e-04 7.1156301839e-03 -3.1951191163e-02) (0.0000000000e+00 0.0000000000e+00 0.0000000000e+00))
1.5232925620e+00	((5.4031403104e+00 3.0848231263e+01 -1.7784151253e-18) (1.4231046237e-01 -1.4324601321e-02 1.0876063805e-21) (0.0000000000e+00 0.0000000000e+00 0.0000000000e+00)) ((-1.5424115632e+00 2.7015701552e-01 8.9812051566e+00) (7.1623006603e-04 7.1155231183e-03 -3.1950630920e-02) (0.0000000000e+00 0.0000000000e+00 0.0000000000e+00))
1.5243784544e+00	((5.4028098378e+00 3.0848731332e+01 -1.7784825474e-18) (1.4230833649e-01 -1.4322701073e-02 1.0876695450e-21) (0.0000000000e+00 0.0000000000e+00 0.0000000000e+00)) ((-1.5424365666e+00 2.7014049189e-01 8.9811448133e+00) (7.1613505367e-04 7.1154168247e-03 -3.1950075482e-02) (0.0000000000e+00 0.0000000000e+00 0.0000000000e+00))
1.5254643468e+00	((5.4024941494e+00 3.0849228590e+01 -1.7785498248e-18) (1.4230622692e-01 -1.4320815708e-02 1.0877314687e-21) (0.0000000000e+00 0.0000000000e+00 0.0000000000e+00)) ((-1.5424614295e+00 2.7012470747e-01 8.9810985296e+00) (7.1604078538e-04 7.1153113459e-03 -3.1949525724e-02) (0.0000000000e+00 0.0000000000e+00 0.0000000000e+00))
1.5265502392e+00	((5.4021772165e+00 3.0849727411e+01 -1.7786163817e-18) (1.4230413346e-01 -1.4318942582e-02 1.0877948965e-21) (0.0000000000e+00 0.0000000000e+00 0.0000000000e+00)) ((-1.5424863705e+00 2.7010886082e-01 8.9810502203e+00) (7.1594712911e-04 7.1152066729e-03 -3.1948982151e-02) (0.0000000000e+00 0.0000000000e+00 0.0000000000e+00))
1.5276361316e+00	((5.4018494689e+00 3.0850213236e+01 -1.7786843688e-18) (1.4230205717e-01 -1.4317081986e-02 1.0878571862e-21) (0.0000000000e+00 0.0000000000e+00 0.0000000000e+00)) ((-1.5425106618e+00 2.7009247344e-01 8.9809838941e+00) (7.1585409928e-04 7.1151028583e-03 -3.1948444727e-02) (0.0000000000e+00 0.0000000000e+00 0.0000000000e+00))
1.5287219317e+00	((5.4015392139e+00 3.0850709233e+01 -1.7787546663e-18) (1.4230004216e-01 -1.4315299556e-02 1.0878145058e-21) (0.0000000000e+00 0.0000000000e+00 0.0000000000e+00)) ((-1.5425354617e+00 2.7007696070e-01 8.9809376609e+00) (7.1576497779e-04 7.1150021082e-03 -3.1947931060e-02) (0.0000000000e+00 0.0000000000e+00 0.0000000000e+00))
1.5298074947e+00	((5.4012210013e+00 3.0851190957e+01 -1.7788205678e-18) (1.4229802039e-01 -1.4313483935e-02 1.0878808835e-21) (0.0000000000e+00 0.0000000000e+00 0.0000000000e+00)) ((-1.5425595478e+00 2.7006105007e-01 8.9808812609e+00) (7.1567419675e-04 7.1149010197e-03 -3.1947421541e-02) (0.0000000000e+00 0.0000000000e+00 0.0000000000e+00))
1.5308930578e+00	((5.4009119248e+00 3.0851670542e+01 -1.7788853534e-18) (1.4229601423e-01 -1.4311655757e-02 1.0879412884e-21) (0.0000000000e+00 0.0000000000e+00 0.0000000000e+00)) ((-1.5425835271e+00 2.7004559624e-01 8.9808324908e+00) (7.1558278785e-04 7.1148007117e-03 -3.1946903309e-02) (0.0000000000e+00 0.0000000000e+00 0.0000000000e+00))
1.5319786208e+00	((5.4005988948e+00 3.0852149979e+01 -1.7789517061e-18) (1.4229402034e-01 -1.4309863379e-02 1.0880023376e-21) (0.0000000000e+00 0.0000000000e+00 0.0000000000e+00)) ((-1.5426074990e+00 2.7002994474e-01 8.9807787109e+00) (7.1549316895e-04 7.1147010171e-03 -3.1946385041e-02) (0.0000000000e+00 0.0000000000e+00 0.0000000000e+00))
1.5330641838e+00	((5.4002890903e+00 3.0852620908e+01 -1.7790166205e-18) (1.4229204282e-01 -1.4308085068e-02 1.0880635110e-21) (0.0000000000e+00 0.0000000000e+00 0.0000000000e+00)) ((-1.5426310454e+00 2.7001445451e-01 8.9807226941e+00) (7.1540425342e-04 7.1146021408e-03 -3.1945871992e-02) (0.0000000000e+00 0.0000000000e+00 0.0000000000e+00))
1.5341497468e+00	((5.3999924885e+00 3.0853097766e+01 -1.7790809460e-18) (1.4229008228e-01 -1.4306310930e-02 1.0881232318e-21) (0.0000000000e+00 0.0000000000e+00 0.0000000000e+00)) ((-1.5426548883e+00 2.6999962442e-01 8.9806845865e+00) (7.1531554650e-04 7.1145041142e-03 -3.1945366502e-02) (0.0000000000e+00 0.0000000000e+00 0.0000000000e+00))
1.5352353099e+00	((5.3996769355e+00 3.0853553773e+01 -1.7791457629e-18) (1.4228813447e-01 -1.4304559024e-02 1.0881843959e-21) (0.0000000000e+00 0.0000000000e+00 0.0000000000e+00)) ((-1.5426776886e+00 2.6998384678e-01 8.9806159442e+00) (7.1522795121e-04 7.1144067237e-03 -3.1944864123e-02) (0.0000000000e+00 0.0000000000e+00 0.0000000000e+00))
1.5363208729e+00	((5.3993700025e+00 3.0854007166e+01 -1.7792101064e-18) (1.4228620381e-01 -1.4302829538e-02 1.0882455787e-21) (0.0000000000e+00 0.0000000000e+00 0.0000000000e+00)) ((-1.5427003583e+00 2.6996850012e-01 8.9805560951e+00) (7.1514147689e-04 7.1143101904e-03 -3.1944364846e-02) (0.0000000000e+00 0.0000000000e+00 0.0000000000e+00))
1.5374064359e+00	((5.3990776038e+00 3.0854468192e+01 -1.7792721843e-18) (1.4228428866e-01 -1.4301108226e-02 1.0883046157e-21) (0.0000000000e+00 0.0000000000e+00 0.0000000000e+00)) ((-1.5427234096e+00 2.6995388019e-01 8.9805150768e+00) (7.1505541130e-04 7.1142144331e-03 -3.1943872147e-02) (0.0000000000e+00 0.0000000000e+00 0.0000000000e+00))
1.5384916968e+00	((5.3987625343e+00 3.0854916202e+01 -1.7793401772e-18) (1.4228245805e-01 -1.4299462247e-02 1.0882526794e-21) (0.0000000000e+00 0.0000000000e+00 0.0000000000e+00)) ((-1.5427458101e+00 2.6993812671e-01 8.9804414069e+00) (7.1497311237e-04 7.1141229024e-03 -3.1943428873e-02) (0.0000000000e+00 0.0000000000e+00 0.0000000000e+00))
1.5395768821e+00	((5.3984688984e+00 3.0855374245e+01 -1.7794031693e-18) (1.4228060156e-01 -1.4297751267e-02 1.0883119119e-21) (0.0000000000e+00 0.0000000000e+00 0.0000000000e+00)) ((-1.5427687123e+00 2.6992344492e-01 8.9803956549e+00) (7.1488756336e-04 7.1140300780e-03 -3.1942954627e-02) (0.0000000000e+00 0.0000000000e+00 0.0000000000e+00))
1.5406620674e+00	((5.3981731785e+00 3.0855820664e+01 -1.7794659167e-18) (1.4227875625e-01 -1.4296057278e-02 1.0883698895e-21) (0.0000000000e+00 0.0000000000e+00 0.0000000000e+00)) ((-1.5427910332e+00 2.6990865893e-01 8.9803427390e+00) (7.1480286390e-04 7.1139378124e-03 -3.1942481041e-02) (0.0000000000e+00 0.0000000000e+00 0.0000000000e+00))
1.5417472527e+00	((5.3978725864e+00 3.0856257241e+01 -1.7795273193e-18) (1.4227692543e-01 -1.4294390272e-02 1.0884302901e-21) (0.0000000000e+00 0.0000000000e+00 0.0000000000e+00)) ((-1.5428128621e+00 2.6989362932e-01 8.9802822807e+00) (7.1471951361e-04 7.1138462716e-03 -3.1942009031e-02) (0.0000000000e+00 0.0000000000e+00 0.0000000000e+00))
1.5428324380e+00	((5.3975797358e+00 3.0856692488e+01 -1.7795888404e-18) (1.4227510818e-01 -1.4292723609e-02 1.0884898297e-21) (0.0000000000e+00 0.0000000000e+00 0.0000000000e+00)) ((-1.5428346244e+00 2.6987898679e-01 8.9802267108e+00) (7.1463618045e-04 7.1137554090e-03 -3.1941545260e-02) (0.0000000000e+00 0.0000000000e+00 0.0000000000e+00))
1.5439176233e+00	((5.3972865860e+00 3.0857131445e+01 -1.7796504189e-18) (1.4227330239e-01 -1.4291089030e-02 1.0885459037e-21) (0.0000000000e+00 0.0000000000e+00 0.0000000000e+00)) ((-1.5428565723e+00 2.6986432930e-01 8.9801727810e+00) (7.1455445151e-04 7.1136651195e-03 -3.1941081576e-02) (0.0000000000e+00 0.0000000000e+00 0.0000000000e+00))
1.5450028086e+00	((5.3969965843e+00 3.0857560120e+01 -1.7797119015e-18) (1.4227151632e-01 -1.4289454384e-02 1.0886043737e-21) (0.0000000000e+00 0.0000000000e+00 0.0000000000e+00)) ((-1.5428780060e+00 2.6984982922e-01 8.9801168520e+00) (7.1447271919e-04 7.1135758158e-03 -3.1940626403e-02) (0.0000000000e+00 0.0000000000e+00 0.0000000000e+00))
1.5460879939e+00	((5.3966982655e+00 3.0857984821e+01 -1.7797724873e-18) (1.4226974072e-01 -1.4287840841e-02 1.0886626841e-21) (0.0000000000e+00 0.0000000000e+00 0.0000000000e+00)) ((-1.5428992410e+00 2.6983491327e-01 8.9800506336e+00) (7.1439204206e-04 7.1134870358e-03 -3.1940173698e-02) (0.0000000000e+00 0.0000000000e+00 0.0000000000e+00))
1.5471731792e+00	((5.3964143722e+00 3.0858413387e+01 -1.7798333210e-18) (1.4226798095e-01 -1.4286243928e-02 1.0887204844e-21) (0.0000000000e+00 0.0000000000e+00 0.0000000000e+00)) ((-1.5429206693e+00 2.6982071861e-01 8.9800008595e+00) (7.1431219642e-04 7.1133990473e-03 -3.1939724811e-02) (0.0000000000e+00 0.0000000000e+00 0.0000000000e+00))
1.5482583645e+00	((5.3961352240e+00 3.0858840833e+01 -1.7798935604e-18) (1.4226623246e-01 -1.4284653375e-02 1.0887774321e-21) (0.0000000000e+00 0.0000000000e+00 0.0000000000e+00)) ((-1.5429420416e+00 2.6980676120e-01 8.9799536301e+00) (7.1423266875e-04 7.1133116228e-03 -3.1939281700e-02) (0.0000000000e+00 0.0000000000e+00 0.0000000000e+00))
1.5493432927e+00	((5.3958409008e+00 3.0859252769e+01 -1.7799573770e-18) (1.4226457866e-01 -1.4283149969e-02 1.0886991816e-21) (0.0000000000e+00 0.0000000000e+00 0.0000000000e+00)) ((-1.5429626385e+00 2.6979204504e-01 8.9798843101e+00) (7.1415749843e-04 7.1132289330e-03 -3.1938890522e-02) (0.0000000000e+00 0.0000000000e+00 0.0000000000e+00))
1.5504280187e+00	((5.3955614549e+00 3.0859670620e+01 -1.7800172186e-18) (1.4226288417e-01 -1.4281591823e-02 1.0887577388e-21) (0.0000000000e+00 0.0000000000e+00 0.0000000000e+00)) ((-1.5429835310e+00 2.6977807275e-01 8.9798342335e+00) (7.1407959115e-04 7.1131442085e-03 -3.1938466575e-02) (0.0000000000e+00 0.0000000000e+00 0.0000000000e+00))
1.5515127448e+00	((5.3952774498e+00 3.0860073793e+01 -1.7800773828e-18) (1.4226120634e-01 -1.4280022426e-02 1.0888183875e-21) (0.0000000000e+00 0.0000000000e+00 0.0000000000e+00)) ((-1.5430036897e+00 2.6976387249e-01 8.9797667157e+00) (7.1400112128e-04 7.1130603172e-03 -3.1938042100e-02) (0.0000000000e+00 0.0000000000e+00 0.0000000000e+00))
1.5525974709e+00	((5.3949967039e+00 3.0860482510e+01 -1.7801352082e-18) (1.4225953402e-01 -1.4278493478e-02 1.0888742130e-21) (0.0000000000e+00 0.0000000000e+00 0.0000000000e+00)) ((-1.5430241255e+00 2.6974983519e-01 8.9797167947e+00) (7.1392467389e-04 7.1129767010e-03 -3.1937614771e-02) (0.0000000000e+00 0.0000000000e+00 0.0000000000e+00))
1.5536821969e+00	((5.3947145796e+00 3.0860886232e+01 -1.7801932284e-18) (1.4225787608e-01 -1.4276955296e-02 1.0889325745e-21) (0.0000000000e+00 0.0000000000e+00 0.0000000000e+00)) ((-1.5430443116e+00 2.6973572898e-01 8.9796569404e+00) (7.1384776479e-04 7.1128938039e-03 -3.1937197254e-02) (0.0000000000e+00 0.0000000000e+00 0.0000000000e+00))
1.5547669230e+00	((5.3944395120e+00 3.0861286951e+01 -1.7802502955e-18) (1.4225622508e-01 -1.4275463174e-02 1.0889893614e-21) (0.0000000000e+00 0.0000000000e+00 0.0000000000e+00)) ((-1.5430643476e+00 2.6972197560e-01 8.9796017619e+00) (7.1377315871e-04 7.1128112541e-03 -3.1936775531e-02) (0.0000000000e+00 0.0000000000e+00 0.0000000000e+00))
1.5558516491e+00	((5.3941675729e+00 3.0861693325e+01 -1.7803094608e-18) (1.4225458563e-01 -1.4273961403e-02 1.0890465043e-21) (0.0000000000e+00 0.0000000000e+00 0.0000000000e+00)) ((-1.5430846663e+00 2.6970837864e-01 8.9795503928e+00) (7.1369807013e-04 7.1127292815e-03 -3.1936363341e-02) (0.0000000000e+00 0.0000000000e+00 0.0000000000e+00))
1.5569363751e+00	((5.3938509893e+00 3.0862058867e+01 -1.7803681629e-18) (1.4225295461e-01 -1.4272499576e-02 1.0891095518e-21) (0.0000000000e+00 0.0000000000e+00 0.0000000000e+00)) ((-1.5431029434e+00 2.6969254946e-01 8.9794353364e+00) (7.1362497882e-04 7.1126477305e-03 -3.1935948536e-02) (0.0000000000e+00 0.0000000000e+00 0.0000000000e+00))
1.5580211012e+00	((5.3936159900e+00 3.0862468358e+01 -1.7804233381e-18) (1.4225133358e-01 -1.4271032037e-02 1.0891624342e-21) (0.0000000000e+00 0.0000000000e+00 0.0000000000e+00)) ((-1.5431234179e+00 2.6968079950e-01 8.9794296268e+00) (7.1355160184e-04 7.1125666790e-03 -3.1935541934e-02) (0.0000000000e+00 0.0000000000e+00 0.0000000000e+00))
1.5591058273e+00	((5.3933424750e+00 3.0862855550e+01 -1.7804800815e-18) (1.4224972783e-01 -1.4269588659e-02 1.0892200226e-21) (0.0000000000e+00 0.0000000000e+00 0.0000000000e+00)) ((-1.5431427775e+00 2.6966712375e-01 8.9793690242e+00) (7.1347943297e-04 7.1124863915e-03 -3.1935136746e-02) (0.0000000000e+00 0.0000000000e+00 0.0000000000e+00))
1.5601905533e+00	((5.3930700978e+00 3.0863242169e+01 -1.7805374962e-18) (1.4224812964e-01 -1.4268156593e-02 1.0892767273e-21) (0.0000000000e+00 0.0000000000e+00 0.0000000000e+00)) ((-1.5431621085e+00 2.6965350489e-01 8.9793101656e+00) (7.1340782967e-04 7.1124064819e-03 -3.1934735282e-02) (0.0000000000e+00 0.0000000000e+00 0.0000000000e+00))
1.5612752794e+00	((5.3928040116e+00 3.0863624230e+01 -1.7805924023e-18) (1.4224654877e-01 -1.4266731265e-02 1.0893325758e-21) (0.0000000000e+00 0.0000000000e+00 0.0000000000e+00)) ((-1.5431812115e+00 2.6964020058e-01 8.9792558542e+00) (7.1333656325e-04 7.1123274387e-03 -3.1934339882e-02) (0.0000000000e+00 0.0000000000e+00 0.0000000000e+00))
1.5623600055e+00	((5.3925410195e+00 3.0864002974e+01 -1.7806490253e-18) (1.4224497440e-01 -1.4265334638e-02 1.0893889637e-21) (0.0000000000e+00 0.0000000000e+00 0.0000000000e+00)) ((-1.5432001487e+00 2.6962705098e-01 8.9792010314e+00) (7.1326673191e-04 7.1122487202e-03 -3.1933943951e-02) (0.0000000000e+00 0.0000000000e+00 0.0000000000e+00))
1.5634445909e+00	((5.3922710724e+00 3.0864383354e+01 -1.7807100566e-18) (1.4224349751e-01 -1.4264009852e-02 1.0892439243e-21) (0.0000000000e+00 0.0000000000e+00 0.0000000000e+00)) ((-1.5432191677e+00 2.6961355362e-01 8.9791391574e+00) (7.1320049258e-04 7.1121748757e-03 -3.1933595283e-02) (0.0000000000e+00 0.0000000000e+00 0.0000000000e+00))
1.5645286778e+00	((5.3919966614e+00 3.0864742766e+01 -1.7807678961e-18) (1.4224201183e-01 -1.4262640734e-02 1.0893126655e-21) (0.0000000000e+00 0.0000000000e+00 0.0000000000e+00)) ((-1.5432371383e+00 2.6959983307e-01 8.9790662655e+00) (7.1313203671e-04 7.1121005915e-03 -3.1933258547e-02) (0.0000000000e+00 0.0000000000e+00 0.0000000000e+00))
1.5656127647e+00	((5.3917418030e+00 3.0865118019e+01 -1.7808223104e-18) (1.4224052530e-01 -1.4261251413e-02 1.0893696785e-21) (0.0000000000e+00 0.0000000000e+00 0.0000000000e+00)) ((-1.5432559010e+00 2.6958709015e-01 8.9790189806e+00) (7.1306257067e-04 7.1120262648e-03 -3.1932885459e-02) (0.0000000000e+00 0.0000000000e+00 0.0000000000e+00))
1.5666968515e+00	((5.3914649748e+00 3.0865476945e+01 -1.7808775156e-18) (1.4223904010e-01 -1.4259880268e-02 1.0894270000e-21) (0.0000000000e+00 0.0000000000e+00 0.0000000000e+00)) ((-1.5432738473e+00 2.6957324874e-01 8.9789412634e+00) (7.1299401340e-04 7.1119520050e-03 -3.1932513859e-02) (0.0000000000e+00 0.0000000000e+00 0.0000000000e+00))
1.5677809384e+00	((5.3912247991e+00 3.0865846972e+01 -1.7809304779e-18) (1.4223756821e-01 -1.4258511205e-02 1.0894818458e-21) (0.0000000000e+00 0.0000000000e+00 0.0000000000e+00)) ((-1.5432923486e+00 2.6956123995e-01 8.9789071005e+00) (7.1292556026e-04 7.1118784106e-03 -3.1932148555e-02) (0.0000000000e+00 0.0000000000e+00 0.0000000000e+00))
1.5688650252e+00	((5.3909568874e+00 3.0866200061e+01 -1.7809845645e-18) (1.4223610415e-01 -1.4257171932e-02 1.0895388914e-21) (0.0000000000e+00 0.0000000000e+00 0.0000000000e+00)) ((-1.5433100031e+00 2.6954784437e-01 8.9788362649e+00) (7.1285859658e-04 7.1118052074e-03 -3.1931782619e-02) (0.0000000000e+00 0.0000000000e+00 0.0000000000e+00))
1.5699491121e+00	((5.3907087794e+00 3.0866556013e+01 -1.7810374844e-18) (1.4223464418e-01 -1.4255850014e-02 1.0895912161e-21) (0.0000000000e+00 0.0000000000e+00 0.0000000000e+00)) ((-1.5433278007e+00 2.6953543897e-01 8.9787891093e+00) (7.1279250072e-04 7.1117322090e-03 -3.1931418291e-02) (0.0000000000e+00 0.0000000000e+00 0.0000000000e+00))
1.5710331990e+00	((5.3904494800e+00 3.0866908467e+01 -1.7810911146e-18) (1.4223319537e-01 -1.4254528663e-02 1.0896461061e-21) (0.0000000000e+00 0.0000000000e+00 0.0000000000e+00)) ((-1.5433454234e+00 2.6952247400e-01 8.9787259621e+00) (7.1272643317e-04 7.1116597686e-03 -3.1931060573e-02) (0.0000000000e+00 0.0000000000e+00 0.0000000000e+00))
1.5721172858e+00	((5.3901990731e+00 3.0867259670e+01 -1.7811437318e-18) (1.4223175847e-01 -1.4253224655e-02 1.0897004877e-21) (0.0000000000e+00 0.0000000000e+00 0.0000000000e+00)) ((-1.5433629835e+00 2.6950995365e-01 8.9786721357e+00) (7.1266123277e-04 7.1115879237e-03 -3.1930705237e-02) (0.0000000000e+00 0.0000000000e+00 0.0000000000e+00))
1.5732013727e+00	((5.3899340770e+00 3.0867602565e+01 -1.7811969049e-18) (1.4223032468e-01 -1.4251948594e-02 1.0897555706e-21) (0.0000000000e+00 0.0000000000e+00 0.0000000000e+00)) ((-1.5433801283e+00 2.6949670385e-01 8.9785980488e+00) (7.1259742969e-04 7.1115162339e-03 -3.1930348576e-02) (0.0000000000e+00 0.0000000000e+00 0.0000000000e+00))
1.5742854596e+00	((5.3896842847e+00 3.0867947849e+01 -1.7812498395e-18) (1.4222890161e-01 -1.4250670741e-02 1.0898090801e-21) (0.0000000000e+00 0.0000000000e+00 0.0000000000e+00)) ((-1.5433973924e+00 2.6948421424e-01 8.9785424462e+00) (7.1253353706e-04 7.1114450806e-03 -3.1929998934e-02) (0.0000000000e+00 0.0000000000e+00 0.0000000000e+00))
1.5753695464e+00	((5.3894270592e+00 3.0868288325e+01 -1.7813022323e-18) (1.4222749434e-01 -1.4249395201e-02 1.0898643531e-21) (0.0000000000e+00 0.0000000000e+00 0.0000000000e+00)) ((-1.5434144163e+00 2.6947135296e-01 8.9784754623e+00) (7.1246976004e-04 7.1113747172e-03 -3.1929655693e-02) (0.0000000000e+00 0.0000000000e+00 0.0000000000e+00))
1.5764536333e+00	((5.3891889930e+00 3.0868629433e+01 -1.7813534462e-18) (1.4222609650e-01 -1.4248153713e-02 1.0899182331e-21) (0.0000000000e+00 0.0000000000e+00 0.0000000000e+00)) ((-1.5434314717e+00 2.6945944965e-01 8.9784286564e+00) (7.1240768567e-04 7.1113048252e-03 -3.1929310170e-02) (0.0000000000e+00 0.0000000000e+00 0.0000000000e+00))
1.5775377202e+00	((5.3889414877e+00 3.0868966605e+01 -1.7814051209e-18) (1.4222470649e-01 -1.4246917725e-02 1.0899715532e-21) (0.0000000000e+00 0.0000000000e+00 0.0000000000e+00)) ((-1.5434483303e+00 2.6944707438e-01 8.9783709019e+00) (7.1234588627e-04 7.1112353243e-03 -3.1928969439e-02) (0.0000000000e+00 0.0000000000e+00 0.0000000000e+00))
1.5786218070e+00	((5.3886812821e+00 3.0869295102e+01 -1.7814575111e-18) (1.4222333001e-01 -1.4245683900e-02 1.0900265953e-21) (0.0000000000e+00 0.0000000000e+00 0.0000000000e+00)) ((-1.5434647551e+00 2.6943406410e-01 8.9782934635e+00) (7.1228419501e-04 7.1111665005e-03 -3.1928634858e-02) (0.0000000000e+00 0.0000000000e+00 0.0000000000e+00))
1.5797058939e+00	((5.3884428614e+00 3.0869625661e+01 -1.7815080822e-18) (1.4222196956e-01 -1.4244454500e-02 1.0900798373e-21) (0.0000000000e+00 0.0000000000e+00 0.0000000000e+00)) ((-1.5434812831e+00 2.6942214307e-01 8.9782418502e+00) (7.1222272500e-04 7.1110984779e-03 -3.1928306151e-02) (0.0000000000e+00 0.0000000000e+00 0.0000000000e+00))
1.5807899808e+00	((5.3882045594e+00 3.0869952472e+01 -1.7815576608e-18) (1.4222061678e-01 -1.4243258174e-02 1.0901333188e-21) (0.0000000000e+00 0.0000000000e+00 0.0000000000e+00)) ((-1.5434976236e+00 2.6941022797e-01 8.9781891188e+00) (7.1216290868e-04 7.1110308391e-03 -3.1927975263e-02) (0.0000000000e+00 0.0000000000e+00 0.0000000000e+00))
1.5818740676e+00	((5.3879552649e+00 3.0870278217e+01 -1.7816089963e-18) (1.4221927388e-01 -1.4242067896e-02 1.0901864375e-21) (0.0000000000e+00 0.0000000000e+00 0.0000000000e+00)) ((-1.5435139108e+00 2.6939776325e-01 8.9781224798e+00) (7.1210339481e-04 7.1109636940e-03 -3.1927648831e-02) (0.0000000000e+00 0.0000000000e+00 0.0000000000e+00))
1.5829581545e+00	((5.3877198871e+00 3.0870602535e+01 -1.7816588575e-18) (1.4221794415e-01 -1.4240880894e-02 1.0902388795e-21) (0.0000000000e+00 0.0000000000e+00 0.0000000000e+00)) ((-1.5435301267e+00 2.6938599436e-01 8.9780699081e+00) (7.1204404471e-04 7.1108972074e-03 -3.1927328050e-02) (0.0000000000e+00 0.0000000000e+00 0.0000000000e+00))
1.5840422414e+00	((5.3874755745e+00 3.0870920325e+01 -1.7817088648e-18) (1.4221662769e-01 -1.4239699262e-02 1.0902927074e-21) (0.0000000000e+00 0.0000000000e+00 0.0000000000e+00)) ((-1.5435460162e+00 2.6937377872e-01 8.9780048623e+00) (7.1198496309e-04 7.1108313844e-03 -3.1927012318e-02) (0.0000000000e+00 0.0000000000e+00 0.0000000000e+00))
1.5851263282e+00	((5.3872376039e+00 3.0871237617e+01 -1.7817581968e-18) (1.4221532433e-01 -1.4238531475e-02 1.0903458551e-21) (0.0000000000e+00 0.0000000000e+00 0.0000000000e+00)) ((-1.5435618808e+00 2.6936188020e-01 8.9779454365e+00) (7.1192657373e-04 7.1107662163e-03 -3.1926699575e-02) (0.0000000000e+00 0.0000000000e+00 0.0000000000e+00))
1.5862091945e+00	((5.3869920991e+00 3.0871556455e+01 -1.7818256287e-18) (1.4221429090e-01 -1.4237689922e-02 1.0899154596e-21) (0.0000000000e+00 0.0000000000e+00 0.0000000000e+00)) ((-1.5435778228e+00 2.6934960495e-01 8.9778755120e+00) (7.1188449611e-04 7.1107145452e-03 -3.1926562676e-02) (0.0000000000e+00 0.0000000000e+00 0.0000000000e+00))
1.5872916753e+00	((5.3867697513e+00 3.0871860085e+01 -1.7818724948e-18) (1.4221312826e-01 -1.4236465268e-02 1.0899676594e-21) (0.0000000000e+00 0.0000000000e+00 0.0000000000e+00)) ((-1.5435930042e+00 2.6933848756e-01 8.9778318943e+00) (7.1182326340e-04 7.1106564132e-03 -3.1926304086e-02) (0.0000000000e+00 0.0000000000e+00 0.0000000000e+00))
1.5883741561e+00	((5.3865293171e+00 3.0872165383e+01 -1.7819207775e-18) (1.4221196957e-01 -1.4235272850e-02 1.0900230130e-21) (0.0000000000e+00 0.0000000000e+00 0.0000000000e+00)) ((-1.5436082692e+00 2.6932646585e-01 8.9777656451e+00) (7.1176364249e-04 7.1105984786e-03 -3.1926025068e-02) (0.0000000000e+00 0.0000000000e+00 0.0000000000e+00))
1.5894566369e+00	((5.3862945896e+00 3.0872474661e+01 -1.7819692419e-18) (1.4221080512e-01 -1.4234102272e-02 1.0900756744e-21) (0.0000000000e+00 0.0000000000e+00 0.0000000000e+00)) ((-1.5436237330e+00 2.6931472948e-01 8.9777053320e+00) (7.1170511358e-04 7.1105402560e-03 -3.1925744214e-02) (0.0000000000e+00 0.0000000000e+00 0.0000000000e+00))
1.5905391177e+00	((5.3860571381e+00 3.0872770917e+01 -1.7820164106e-18) (1.4220964056e-01 -1.4232950053e-02 1.0901286491e-21) (0.0000000000e+00 0.0000000000e+00 0.0000000000e+00)) ((-1.5436385458e+00 2.6930285690e-01 8.9776381042e+00) (7.1164750266e-04 7.1104820281e-03 -3.1925463459e-02) (0.0000000000e+00 0.0000000000e+00 0.0000000000e+00))
1.5916215985e+00	((5.3858328595e+00 3.0873079249e+01 -1.7820645397e-18) (1.4220847440e-01 -1.4231815549e-02 1.0901799343e-21) (0.0000000000e+00 0.0000000000e+00 0.0000000000e+00)) ((-1.5436539624e+00 2.6929164298e-01 8.9775874932e+00) (7.1159077746e-04 7.1104237200e-03 -3.1925182958e-02) (0.0000000000e+00 0.0000000000e+00 0.0000000000e+00))
1.5927040793e+00	((5.3855964118e+00 3.0873376517e+01 -1.7821125788e-18) (1.4220730822e-01 -1.4230697023e-02 1.0902319360e-21) (0.0000000000e+00 0.0000000000e+00 0.0000000000e+00)) ((-1.5436688258e+00 2.6927982059e-01 8.9775196541e+00) (7.1153485116e-04 7.1103654108e-03 -3.1924903182e-02) (0.0000000000e+00 0.0000000000e+00 0.0000000000e+00))