# Forces         
# CofR           : (0.0000000000e+00 0.0000000000e+00 0.0000000000e+00)
# Time           forces(pressure viscous porous) moment(pressure viscous porous)
1.0017676483e-03	((4.3299216642e-01 1.0581787934e+00 3.5988528302e-18) (4.9746470577e-02 -4.9179076601e-03 2.4424341764e-21) (0.0000000000e+00 0.0000000000e+00 0.0000000000e+00)) ((-5.2908939672e-03 2.1649608321e-03 3.4988491219e-01) (2.4589538301e-05 2.4873235288e-04 3.1008459603e-04) (0.0000000000e+00 0.0000000000e+00 0.0000000000e+00))
2.6802029596e-03	((3.2928983875e-02 3.5582830660e-01 7.3204017116e-18) (4.3340819397e-02 -4.1107012996e-03 2.6093621268e-21) (0.0000000000e+00 0.0000000000e+00 0.0000000000e+00)) ((-1.7791415330e-03 1.6464491938e-04 -2.0163032902e+00) (2.0553506498e-05 2.1670409698e-04 9.2614352046e-04) (0.0000000000e+00 0.0000000000e+00 0.0000000000e+00))
4.2367054885e-03	((-6.5344704238e-04 -1.5478804586e+00 7.9640241698e-18) (3.9970144905e-02 -3.6995730775e-03 -4.0180366766e-21) (0.0000000000e+00 0.0000000000e+00 0.0000000000e+00)) ((7.7394022932e-03 -3.2672352119e-06 -2.5842449596e+00) (1.8497865387e-05 1.9985072453e-04 1.1757872193e-03) (0.0000000000e+00 0.0000000000e+00 0.0000000000e+00))
5.8039035621e-03	((1.5526634801e-01 -1.3950217525e+00 6.2681806695e-18) (3.7790066390e-02 -3.4702849643e-03 -4.6512002810e-21) (0.0000000000e+00 0.0000000000e+00 0.0000000000e+00)) ((6.9751087625e-03 7.7633174003e-04 -1.5471436388e+00) (1.7351424821e-05 1.8895033195e-04 1.2710300191e-03) (0.0000000000e+00 0.0000000000e+00 0.0000000000e+00))
7.4148961987e-03	((5.0484328031e-01 2.2625532556e+00 -1.6108506465e-19) (3.6208234727e-02 -3.2971746484e-03 -3.6181352198e-21) (0.0000000000e+00 0.0000000000e+00 0.0000000000e+00)) ((-1.1312766278e-02 2.5242164015e-03 2.9718070235e+00) (1.6485873242e-05 1.8104117364e-04 1.3161210138e-03) (0.0000000000e+00 0.0000000000e+00 0.0000000000e+00))
9.0705616262e-03	((8.5365120520e-01 3.1431204880e+00 -8.2738584816e-19) (3.5055411941e-02 -3.1568514845e-03 -6.4070076134e-21) (0.0000000000e+00 0.0000000000e+00 0.0000000000e+00)) ((-1.5715602440e-02 4.2682560260e-03 4.4465606133e+00) (1.5784257422e-05 1.7527705970e-04 1.3620373413e-03) (0.0000000000e+00 0.0000000000e+00 0.0000000000e+00))
1.0772559159e-02	((4.0470282582e-01 3.0170778276e+00 2.1766449463e-18) (3.4162172957e-02 -3.0230942724e-03 -3.1016226706e-21) (0.0000000000e+00 0.0000000000e+00 0.0000000000e+00)) ((-1.5085389138e-02 2.0235141291e-03 3.1676715123e+00) (1.5115471362e-05 1.7081086478e-04 1.4114848586e-03) (0.0000000000e+00 0.0000000000e+00 0.0000000000e+00))
1.2519964284e-02	((3.9037910376e-01 5.1087487352e+00 -6.9112025262e-19) (3.3488460416e-02 -2.9215343935e-03 -6.7677447743e-22) (0.0000000000e+00 0.0000000000e+00 0.0000000000e+00)) ((-2.5543743676e-02 1.9518955188e-03 4.8309204310e+00) (1.4607671968e-05 1.6744230208e-04 1.4540968750e-03) (0.0000000000e+00 0.0000000000e+00 0.0000000000e+00))
1.4311296570e-02	((4.2446380564e-01 3.1488452356e+00 2.1911969971e-18) (3.2982041376e-02 -2.8409159420e-03 -3.3558894274e-21) (0.0000000000e+00 0.0000000000e+00 0.0000000000e+00)) ((-1.5744226178e-02 2.1223190282e-03 3.4203672658e+00) (1.4204579710e-05 1.6491020688e-04 1.5078813307e-03) (0.0000000000e+00 0.0000000000e+00 0.0000000000e+00))
1.6145243394e-02	((1.6941974523e+00 3.3841837979e+00 -1.9151100422e-18) (3.2546263941e-02 -2.7965932249e-03 -4.4620953073e-21) (0.0000000000e+00 0.0000000000e+00 0.0000000000e+00)) ((-1.6920918990e-02 8.4709872616e-03 6.9490523990e+00) (1.3982966124e-05 1.6273131971e-04 1.5177368336e-03) (0.0000000000e+00 0.0000000000e+00 0.0000000000e+00))
1.8028165464e-02	((1.9161058105e+00 4.0291835861e+00 -6.9785488365e-18) (3.2219144657e-02 -2.7750657081e-03 -3.2301570356e-21) (0.0000000000e+00 0.0000000000e+00 0.0000000000e+00)) ((-2.0145917930e-02 9.5805290523e-03 8.8815384477e+00) (1.3875328540e-05 1.6109572329e-04 1.5195085353e-03) (0.0000000000e+00 0.0000000000e+00 0.0000000000e+00))
1.9943142857e-02	((2.2964671264e+00 2.5029249250e+00 -1.0787669015e-17) (3.1967813202e-02 -2.7788575985e-03 -7.1580741193e-21) (0.0000000000e+00 0.0000000000e+00 0.0000000000e+00)) ((-1.2514624625e-02 1.1482335632e-02 9.3746616520e+00) (1.3894287993e-05 1.5983906601e-04 1.5096215327e-03) (0.0000000000e+00 0.0000000000e+00 0.0000000000e+00))
2.1877985998e-02	((1.1417607403e+00 2.7347376060e+00 -7.2136555219e-18) (3.1692514487e-02 -2.7381633728e-03 -2.8878800000e-21) (0.0000000000e+00 0.0000000000e+00 0.0000000000e+00)) ((-1.3673688030e-02 5.7088037014e-03 6.9695733126e+00) (1.3690816864e-05 1.5846257244e-04 1.5251304874e-03) (0.0000000000e+00 0.0000000000e+00 0.0000000000e+00))
2.3842794644e-02	((7.4788748742e-01 1.9488030398e+00 -1.6625467056e-18) (3.1477648119e-02 -2.7059604017e-03 -3.2437597030e-21) (0.0000000000e+00 0.0000000000e+00 0.0000000000e+00)) ((-9.7440151991e-03 3.7394374371e-03 4.2803394385e+00) (1.3529802009e-05 1.5738824060e-04 1.5420963943e-03) (0.0000000000e+00 0.0000000000e+00 0.0000000000e+00))
2.5844928061e-02	((2.5232551896e+00 4.3902470492e+00 -1.5038835564e-18) (3.1380014845e-02 -2.6626816207e-03 -3.7153957456e-21) (0.0000000000e+00 0.0000000000e+00 0.0000000000e+00)) ((-2.1951235246e-02 1.2616275948e-02 9.7259210141e+00) (1.3313408104e-05 1.5690007423e-04 1.5892407995e-03) (0.0000000000e+00 0.0000000000e+00 0.0000000000e+00))
2.7849385288e-02	((2.7961494890e+00 6.9623575113e+00 -4.0567535925e-18) (3.1244249615e-02 -2.6587561747e-03 -3.1748427532e-21) (0.0000000000e+00 0.0000000000e+00 0.0000000000e+00)) ((-3.4811787557e-02 1.3980747445e-02 1.2347993101e+01) (1.3293780874e-05 1.5622124808e-04 1.5744089309e-03) (0.0000000000e+00 0.0000000000e+00 0.0000000000e+00))
2.9876995746e-02	((2.0166847591e+00 3.4752996204e+00 -7.0769035143e-18) (3.0980390191e-02 -2.6813364225e-03 -3.3041108420e-21) (0.0000000000e+00 0.0000000000e+00 0.0000000000e+00)) ((-1.7376498102e-02 1.0083423796e-02 8.5608574847e+00) (1.3406682113e-05 1.5490195095e-04 1.5061683907e-03) (0.0000000000e+00 0.0000000000e+00 0.0000000000e+00))
3.1919731491e-02	((7.7981330234e-01 -4.0270411276e+00 -2.3199914003e-18) (3.0761935404e-02 -2.6467439696e-03 6.7908142937e-22) (0.0000000000e+00 0.0000000000e+00 0.0000000000e+00)) ((2.0135205638e-02 3.8990665117e-03 -5.8982221417e-01) (1.3233719848e-05 1.5380967702e-04 1.5001746899e-03) (0.0000000000e+00 0.0000000000e+00 0.0000000000e+00))
3.3962843800e-02	((-3.4932543621e-01 -5.4408302969e+00 8.8465772381e-19) (3.0514809669e-02 -2.6310243468e-03 1.0006010002e-21) (0.0000000000e+00 0.0000000000e+00 0.0000000000e+00)) ((2.7204151484e-02 -1.7466271810e-03 -4.8379850200e+00) (1.3155121734e-05 1.5257404835e-04 1.4721748488e-03) (0.0000000000e+00 0.0000000000e+00 0.0000000000e+00))
3.6023706919e-02	((6.7378318296e-01 -2.1807486628e+00 1.2360903499e-18) (3.0405083020e-02 -2.6320860060e-03 1.2901211132e-21) (0.0000000000e+00 0.0000000000e+00 0.0000000000e+00)) ((1.0903743314e-02 3.3689159148e-03 -1.5936345387e+00) (1.3160430030e-05 1.5202541510e-04 1.4448277123e-03) (0.0000000000e+00 0.0000000000e+00 0.0000000000e+00))
3.8107511130e-02	((1.3998173448e+00 9.5528498679e-01 -6.9252453880e-18) (3.0268502329e-02 -2.6365244777e-03 9.2307281007e-22) (0.0000000000e+00 0.0000000000e+00 0.0000000000e+00)) ((-4.7764249339e-03 6.9990867242e-03 2.9728428609e+00) (1.3182622389e-05 1.5134251165e-04 1.4323994544e-03) (0.0000000000e+00 0.0000000000e+00 0.0000000000e+00))
4.0187670676e-02	((6.5900632374e-01 2.1445126737e+00 -9.5613622880e-18) (3.0063277404e-02 -2.5939221534e-03 5.9690961334e-21) (0.0000000000e+00 0.0000000000e+00 0.0000000000e+00)) ((-1.0722563369e-02 3.2950316187e-03 3.4084787295e+00) (1.2969610767e-05 1.5031638702e-04 1.4100022329e-03) (0.0000000000e+00 0.0000000000e+00 0.0000000000e+00))
4.2262521302e-02	((9.9573131073e-01 4.5171514671e+00 -1.5543233210e-17) (2.9869133366e-02 -2.5609904595e-03 1.0878643965e-20) (0.0000000000e+00 0.0000000000e+00 0.0000000000e+00)) ((-2.2585757336e-02 4.9786565536e-03 5.2772047404e+00) (1.2804952298e-05 1.4934566683e-04 1.3895104607e-03) (0.0000000000e+00 0.0000000000e+00 0.0000000000e+00))
4.4336254357e-02	((1.2664466776e+00 6.2973483780e+00 -1.6122996671e-17) (2.9655847061e-02 -2.5434926800e-03 1.2486227287e-20) (0.0000000000e+00 0.0000000000e+00 0.0000000000e+00)) ((-3.1486741890e-02 6.3322333878e-03 6.4351272000e+00) (1.2717463400e-05 1.4827923530e-04 1.3525481568e-03) (0.0000000000e+00 0.0000000000e+00 0.0000000000e+00))
4.6465867713e-02	((7.9476533262e-01 6.0300251568e+00 -1.8547540176e-17) (2.9451740955e-02 -2.5500901593e-03 1.3534846285e-20) (0.0000000000e+00 0.0000000000e+00 0.0000000000e+00)) ((-3.0150125784e-02 3.9738266631e-03 5.9584164821e+00) (1.2750450797e-05 1.4725870478e-04 1.3170003236e-03) (0.0000000000e+00 0.0000000000e+00 0.0000000000e+00))
4.8598206612e-02	((1.1348504736e+00 4.7618562030e+00 -1.8769539031e-17) (2.9369175139e-02 -2.4876369703e-03 9.2155075554e-21) (0.0000000000e+00 0.0000000000e+00 0.0000000000e+00)) ((-2.3809281015e-02 5.6742523679e-03 6.9571515798e+00) (1.2438184851e-05 1.4684587570e-04 1.3380032560e-03) (0.0000000000e+00 0.0000000000e+00 0.0000000000e+00))
5.0668614631e-02	((1.0586994773e+00 8.2946443190e+00 -1.6073153803e-17) (2.9264399846e-02 -2.4821332266e-03 1.0333026697e-20) (0.0000000000e+00 0.0000000000e+00 0.0000000000e+00)) ((-4.1473221595e-02 5.2934973864e-03 8.0498784354e+00) (1.2410666133e-05 1.4632199923e-04 1.3026355814e-03) (0.0000000000e+00 0.0000000000e+00 0.0000000000e+00))
5.2675345916e-02	((1.3777669404e+00 7.2521276115e+00 -1.5160263304e-17) (2.9074763014e-02 -2.4664235848e-03 1.1824946672e-20) (0.0000000000e+00 0.0000000000e+00 0.0000000000e+00)) ((-3.6260638057e-02 6.8888347021e-03 7.9358114407e+00) (1.2332117924e-05 1.4537381507e-04 1.2625526094e-03) (0.0000000000e+00 0.0000000000e+00 0.0000000000e+00))
5.4786353523e-02	((7.3652187904e-01 1.1189941636e+00 -8.8340964124e-18) (2.8849677717e-02 -2.4762387694e-03 7.0100063237e-21) (0.0000000000e+00 0.0000000000e+00 0.0000000000e+00)) ((-5.5949708180e-03 3.6826093952e-03 1.0829982210e+00) (1.2381193847e-05 1.4424838859e-04 1.2186262530e-03) (0.0000000000e+00 0.0000000000e+00 0.0000000000e+00))
5.6935404820e-02	((1.6347075376e+00 5.7141576120e+00 -9.7909630055e-18) (2.8664801328e-02 -2.4358781817e-03 9.9053465784e-21) (0.0000000000e+00 0.0000000000e+00 0.0000000000e+00)) ((-2.8570788060e-02 8.1735376879e-03 7.0455196105e+00) (1.2179390909e-05 1.4332400664e-04 1.1977213153e-03) (0.0000000000e+00 0.0000000000e+00 0.0000000000e+00))
5.9120669844e-02	((2.2348104777e+00 5.9792917556e+00 -1.2489362609e-17) (2.8510431350e-02 -2.4648058978e-03 4.6833530926e-21) (0.0000000000e+00 0.0000000000e+00 0.0000000000e+00)) ((-2.9896458778e-02 1.1174052389e-02 8.2751599055e+00) (1.2324029489e-05 1.4255215675e-04 1.1388339405e-03) (0.0000000000e+00 0.0000000000e+00 0.0000000000e+00))
6.1305313165e-02	((1.5392582196e+00 3.4487906779e-01 -8.6300955800e-18) (2.8482316324e-02 -2.4226996937e-03 2.5434160163e-21) (0.0000000000e+00 0.0000000000e+00 0.0000000000e+00)) ((-1.7243953389e-03 7.6962910982e-03 1.7344564624e+00) (1.2113498468e-05 1.4241158162e-04 1.1949749633e-03) (0.0000000000e+00 0.0000000000e+00 0.0000000000e+00))
6.3451374387e-02	((1.7405501607e+00 6.5859025279e-01 -9.8690551829e-18) (2.8468808854e-02 -2.3274807412e-03 5.1012187318e-21) (0.0000000000e+00 0.0000000000e+00 0.0000000000e+00)) ((-3.2929512639e-03 8.7027508034e-03 3.7642521197e+00) (1.1637403706e-05 1.4234404427e-04 1.2928224271e-03) (0.0000000000e+00 0.0000000000e+00 0.0000000000e+00))
6.5557563591e-02	((2.3123585958e+00 5.1158202087e+00 -1.7487559950e-17) (2.8471429674e-02 -2.2993016297e-03 5.0791871647e-22) (0.0000000000e+00 0.0000000000e+00 0.0000000000e+00)) ((-2.5579101043e-02 1.1561792979e-02 8.1271560457e+00) (1.1496508149e-05 1.4235714837e-04 1.3798104151e-03) (0.0000000000e+00 0.0000000000e+00 0.0000000000e+00))
6.7606184536e-02	((2.6359104705e+00 3.6285419387e+00 -1.6206530597e-17) (2.8476656437e-02 -2.2457157669e-03 -5.0632362697e-21) (0.0000000000e+00 0.0000000000e+00 0.0000000000e+00)) ((-1.8142709694e-02 1.3179552352e-02 8.0613395025e+00) (1.1228578834e-05 1.4238328219e-04 1.4718257581e-03) (0.0000000000e+00 0.0000000000e+00 0.0000000000e+00))
6.9604416402e-02	((1.7783056684e+00 3.6557386977e+00 -1.5977068968e-17) (2.8334530764e-02 -2.2144140858e-03 -3.4060792462e-21) (0.0000000000e+00 0.0000000000e+00 0.0000000000e+00)) ((-1.8278693489e-02 8.8915283421e-03 6.0282003835e+00) (1.1072070429e-05 1.4167265382e-04 1.4722893955e-03) (0.0000000000e+00 0.0000000000e+00 0.0000000000e+00))
7.1642004817e-02	((1.4715015833e+00 9.6107036601e-01 -1.1460842187e-17) (2.8129108368e-02 -2.2028654810e-03 -4.9132362358e-21) (0.0000000000e+00 0.0000000000e+00 0.0000000000e+00)) ((-4.8053518300e-03 7.3575079166e-03 2.2770389732e+00) (1.1014327405e-05 1.4064554184e-04 1.4297842814e-03) (0.0000000000e+00 0.0000000000e+00 0.0000000000e+00))
7.3791053882e-02	((1.5389014689e+00 3.5851462289e+00 -1.4311447083e-17) (2.7807646008e-02 -2.1731067310e-03 2.1563725288e-21) (0.0000000000e+00 0.0000000000e+00 0.0000000000e+00)) ((-1.7925731145e-02 7.6945073444e-03 6.4410916272e+00) (1.0865533655e-05 1.3903823004e-04 1.3463512726e-03) (0.0000000000e+00 0.0000000000e+00 0.0000000000e+00))
7.5981781344e-02	((2.4489795699e+00 4.3211952888e+00 -1.3648409860e-17) (2.7621980125e-02 -2.1369073385e-03 -1.2365716442e-21) (0.0000000000e+00 0.0000000000e+00 0.0000000000e+00)) ((-2.1605976444e-02 1.2244897850e-02 7.9449617016e+00) (1.0684536692e-05 1.3810990062e-04 1.3112151358e-03) (0.0000000000e+00 0.0000000000e+00 0.0000000000e+00))
7.8169903300e-02	((3.2048568892e+00 4.3423056998e+00 -1.4554945938e-17) (2.7598590316e-02 -2.1068322841e-03 -7.4356378727e-21) (0.0000000000e+00 0.0000000000e+00 0.0000000000e+00)) ((-2.1711528499e-02 1.6024284446e-02 9.7929298358e+00) (1.0534161420e-05 1.3799295158e-04 1.3564233505e-03) (0.0000000000e+00 0.0000000000e+00 0.0000000000e+00))
8.0326989651e-02	((2.8396056775e+00 3.0085113364e+00 -1.2517965778e-17) (2.7523442395e-02 -2.1671630656e-03 -9.2650023642e-21) (0.0000000000e+00 0.0000000000e+00 0.0000000000e+00)) ((-1.5042556682e-02 1.4198028388e-02 8.7176509557e+00) (1.0835815328e-05 1.3761721198e-04 1.3159372463e-03) (0.0000000000e+00 0.0000000000e+00 0.0000000000e+00))
8.2452086981e-02	((1.1943712421e+00 -4.2345932305e-01 -1.0500536590e-17) (2.7237029651e-02 -2.1352246730e-03 -2.1650180792e-21) (0.0000000000e+00 0.0000000000e+00 0.0000000000e+00)) ((2.1172966153e-03 5.9718562108e-03 3.0719911383e+00) (1.0676123365e-05 1.3618514825e-04 1.2960887364e-03) (0.0000000000e+00 0.0000000000e+00 0.0000000000e+00))
8.4685939614e-02	((7.0187915157e-01 -3.0322432420e+00 -5.3573392208e-18) (2.6878663850e-02 -2.1291412065e-03 1.6358645296e-21) (0.0000000000e+00 0.0000000000e+00 0.0000000000e+00)) ((1.5161216210e-02 3.5093957579e-03 -9.6045924510e-02) (1.0645706032e-05 1.3439331925e-04 1.2151022290e-03) (0.0000000000e+00 0.0000000000e+00 0.0000000000e+00))
8.6924618634e-02	((1.1057915664e+00 -4.5045914198e-01 -3.0203333909e-18) (2.6662100567e-02 -2.0766192443e-03 6.7244696892e-24) (0.0000000000e+00 0.0000000000e+00 0.0000000000e+00)) ((2.2522957099e-03 5.5289578322e-03 1.5212733960e+00) (1.0383096222e-05 1.3331050284e-04 1.1851850739e-03) (0.0000000000e+00 0.0000000000e+00 0.0000000000e+00))
8.9175153845e-02	((2.0149002862e+00 4.2977554354e+00 -7.9944322983e-18) (2.6653389559e-02 -2.0285014214e-03 -1.8256019780e-21) (0.0000000000e+00 0.0000000000e+00 0.0000000000e+00)) ((-2.1488777177e-02 1.0074501431e-02 7.2574362507e+00) (1.0142507107e-05 1.3326694780e-04 1.2514931354e-03) (0.0000000000e+00 0.0000000000e+00 0.0000000000e+00))
9.1244204456e-02	((2.4217076404e+00 2.8306105151e+00 -7.8276341612e-18) (2.6695770871e-02 -1.9745178885e-03 -9.1476189083e-21) (0.0000000000e+00 0.0000000000e+00 0.0000000000e+00)) ((-1.4153052575e-02 1.2108538202e-02 7.0010131045e+00) (9.8725894423e-06 1.3347885435e-04 1.3800601039e-03) (0.0000000000e+00 0.0000000000e+00 0.0000000000e+00))
9.3245852629e-02	((1.9468846338e+00 -5.9668398876e-01 -7.9817390978e-18) (2.6685586830e-02 -1.9583815526e-03 -1.1215567858e-20) (0.0000000000e+00 0.0000000000e+00 0.0000000000e+00)) ((2.9834199438e-03 9.7344231692e-03 3.1449823806e+00) (9.7919077629e-06 1.3342793415e-04 1.4360896126e-03) (0.0000000000e+00 0.0000000000e+00 0.0000000000e+00))
9.5248391339e-02	((1.8470268069e+00 1.4672827329e+00 -7.4096431622e-18) (2.6550856518e-02 -1.9695700170e-03 -9.4352034831e-21) (0.0000000000e+00 0.0000000000e+00 0.0000000000e+00)) ((-7.3364136647e-03 9.2351340346e-03 4.3558791328e+00) (9.8478500850e-06 1.3275428259e-04 1.3927538462e-03) (0.0000000000e+00 0.0000000000e+00 0.0000000000e+00))
9.7234573360e-02	((1.7656691533e+00 -2.6415872754e+00 -3.8513843840e-18) (2.6537807001e-02 -1.9649408417e-03 -1.2458577590e-20) (0.0000000000e+00 0.0000000000e+00 0.0000000000e+00)) ((1.3207936377e-02 8.8283457663e-03 6.7796743470e-01) (9.8247042084e-06 1.3268903500e-04 1.4571662609e-03) (0.0000000000e+00 0.0000000000e+00 0.0000000000e+00))
9.9275252928e-02	((1.5190670108e+00 -1.3549588540e+00 -9.3865783102e-18) (2.6350887829e-02 -1.9751048263e-03 -7.3216635682e-21) (0.0000000000e+00 0.0000000000e+00 0.0000000000e+00)) ((6.7747942699e-03 7.5953350539e-03 2.3443225048e+00) (9.8755241316e-06 1.3175443915e-04 1.4062511887e-03) (0.0000000000e+00 0.0000000000e+00 0.0000000000e+00))
1.0143055139e-01	((1.4054267061e+00 4.5971289325e-01 -7.9264931007e-18) (2.6134007797e-02 -2.0298785080e-03 -4.0331542614e-21) (0.0000000000e+00 0.0000000000e+00 0.0000000000e+00)) ((-2.2985644662e-03 7.0271335306e-03 3.3578886182e+00) (1.0149392540e-05 1.3067003898e-04 1.2857996750e-03) (0.0000000000e+00 0.0000000000e+00 0.0000000000e+00))
1.0362973236e-01	((1.1356750004e+00 -6.2781020315e-01 -7.5085121648e-18) (2.6115966587e-02 -2.0650113047e-03 -4.3762004891e-21) (0.0000000000e+00 0.0000000000e+00 0.0000000000e+00)) ((3.1390510158e-03 5.6783750018e-03 2.6910361167e+00) (1.0325056523e-05 1.3057983294e-04 1.2653740536e-03) (0.0000000000e+00 0.0000000000e+00 0.0000000000e+00))
1.0570994132e-01	((1.1824637963e+00 -2.6193144616e+00 -7.8564568556e-18) (2.6005743270e-02 -2.0279586075e-03 -4.1449239952e-21) (0.0000000000e+00 0.0000000000e+00 0.0000000000e+00)) ((1.3096572308e-02 5.9123189815e-03 1.7408456014e+00) (1.0139793038e-05 1.3002871635e-04 1.2387857560e-03) (0.0000000000e+00 0.0000000000e+00 0.0000000000e+00))
1.0772349658e-01	((1.3655564146e+00 -4.1658727978e+00 -3.6797516991e-18) (2.5871997247e-02 -2.0304836556e-03 -8.1495942771e-21) (0.0000000000e+00 0.0000000000e+00 0.0000000000e+00)) ((2.0829363989e-02 6.8277820731e-03 5.0521636479e-01) (1.0152418278e-05 1.2935998623e-04 1.1739284719e-03) (0.0000000000e+00 0.0000000000e+00 0.0000000000e+00))
1.0971376742e-01	((1.3934679063e+00 -2.6706749811e+00 -3.9679253173e-18) (2.5682825100e-02 -1.9053020574e-03 -6.4914899624e-21) (0.0000000000e+00 0.0000000000e+00 0.0000000000e+00)) ((1.3353374905e-02 6.9673395313e-03 1.7192484380e+00) (9.5265102870e-06 1.2841412550e-04 1.2277242312e-03) (0.0000000000e+00 0.0000000000e+00 0.0000000000e+00))
1.1187204642e-01	((1.2116190408e+00 -1.9469321788e+00 -4.6748993493e-18) (2.5427276759e-02 -1.8595970594e-03 -5.7616608240e-21) (0.0000000000e+00 0.0000000000e+00 0.0000000000e+00)) ((9.7346608942e-03 6.0580952039e-03 1.5478034116e+00) (9.2979852972e-06 1.2713638380e-04 1.1600035783e-03) (0.0000000000e+00 0.0000000000e+00 0.0000000000e+00))
1.1411110652e-01	((9.2273075626e-01 1.2136781100e+00 -5.8335278765e-18) (2.5231697784e-02 -1.8839917465e-03 -5.2946229826e-21) (0.0000000000e+00 0.0000000000e+00 0.0000000000e+00)) ((-6.0683905501e-03 4.6136537813e-03 3.2775089322e+00) (9.4199587326e-06 1.2615848892e-04 1.0815570068e-03) (0.0000000000e+00 0.0000000000e+00 0.0000000000e+00))
1.1634058009e-01	((9.3287651330e-01 9.1535302449e-01 -8.6145615465e-18) (2.5147662700e-02 -1.9128999141e-03 -3.8661939222e-21) (0.0000000000e+00 0.0000000000e+00 0.0000000000e+00)) ((-4.5767651224e-03 4.6643825665e-03 3.3258245044e+00) (9.5644995706e-06 1.2573831350e-04 1.0383711090e-03) (0.0000000000e+00 0.0000000000e+00 0.0000000000e+00))
1.1855999978e-01	((1.2733669199e+00 -2.9350526210e+00 -8.0510219808e-18) (2.5077134059e-02 -1.8894764356e-03 -1.0312567745e-20) (0.0000000000e+00 0.0000000000e+00 0.0000000000e+00)) ((1.4675263105e-02 6.3668345996e-03 7.1087984978e-01) (9.4473821779e-06 1.2538567030e-04 1.0670750727e-03) (0.0000000000e+00 0.0000000000e+00 0.0000000000e+00))
1.2078738399e-01	((1.7173306066e+00 -4.1296173784e+00 -5.5104578915e-18) (2.5041773629e-02 -1.8843790523e-03 -9.4910968436e-21) (0.0000000000e+00 0.0000000000e+00 0.0000000000e+00)) ((2.0648086892e-02 8.5866530330e-03 1.2001133046e+00) (9.4218952617e-06 1.2520886814e-04 1.0599960218e-03) (0.0000000000e+00 0.0000000000e+00 0.0000000000e+00))
1.2300900026e-01	((1.5731270615e+00 -3.3879695527e+00 -5.3665545935e-18) (2.4970175902e-02 -1.8205639347e-03 -5.5214480595e-21) (0.0000000000e+00 0.0000000000e+00 0.0000000000e+00)) ((1.6939847764e-02 7.8656353075e-03 1.3392750926e+00) (9.1028196735e-06 1.2485087951e-04 1.1117914187e-03) (0.0000000000e+00 0.0000000000e+00 0.0000000000e+00))
1.2523776176e-01	((1.1832100120e+00 -2.5755391260e-01 -6.9794493270e-18) (2.4888406070e-02 -1.7838986792e-03 -5.4580647187e-21) (0.0000000000e+00 0.0000000000e+00 0.0000000000e+00)) ((1.2877695630e-03 5.9160500599e-03 3.0649807165e+00) (8.9194933961e-06 1.2444203035e-04 1.1062423035e-03) (0.0000000000e+00 0.0000000000e+00 0.0000000000e+00))
1.2748412568e-01	((1.6281140437e+00 -3.4968782203e-01 -9.0221719367e-18) (2.4832116038e-02 -1.8048314559e-03 -5.1242218834e-21) (0.0000000000e+00 0.0000000000e+00 0.0000000000e+00)) ((1.7484391102e-03 8.1405702185e-03 4.4363526648e+00) (9.0241572795e-06 1.2416058019e-04 1.0655282477e-03) (0.0000000000e+00 0.0000000000e+00 0.0000000000e+00))
1.2974376785e-01	((2.3112636729e+00 -4.5846436866e-01 -9.0052204420e-18) (2.4886619070e-02 -1.8126251364e-03 -7.1859804617e-21) (0.0000000000e+00 0.0000000000e+00 0.0000000000e+00)) ((2.2923218433e-03 1.1556318365e-02 5.5946525752e+00) (9.0631256818e-06 1.2443309535e-04 1.0925357254e-03) (0.0000000000e+00 0.0000000000e+00 0.0000000000e+00))
1.3193796137e-01	((2.2920010986e+00 3.5510338382e+00 -9.3339579764e-18) (2.4922768797e-02 -1.7464668901e-03 -6.1209807712e-21) (0.0000000000e+00 0.0000000000e+00 0.0000000000e+00)) ((-1.7755169191e-02 1.1460005493e-02 6.8437749157e+00) (8.7323344507e-06 1.2461384398e-04 1.1689868029e-03) (0.0000000000e+00 0.0000000000e+00 0.0000000000e+00))
1.3412016863e-01	((2.0150811570e+00 3.7137923941e+00 -9.3842111883e-18) (2.4912704925e-02 -1.7042227811e-03 -1.8398291041e-21) (0.0000000000e+00 0.0000000000e+00 0.0000000000e+00)) ((-1.8568961971e-02 1.0075405785e-02 6.6740587583e+00) (8.5211139053e-06 1.2456352463e-04 1.2201936577e-03) (0.0000000000e+00 0.0000000000e+00 0.0000000000e+00))
1.3639833341e-01	((1.5618909399e+00 -1.1370521983e+00 -7.3916219294e-18) (2.4707932831e-02 -1.7381117900e-03 -8.3562212938e-21) (0.0000000000e+00 0.0000000000e+00 0.0000000000e+00)) ((5.6852609917e-03 7.8094546996e-03 3.2955518593e+00) (8.6905589498e-06 1.2353966416e-04 1.1194897613e-03) (0.0000000000e+00 0.0000000000e+00 0.0000000000e+00))
1.3869437063e-01	((1.0055360769e+00 -4.1317999730e+00 -8.4137277285e-18) (2.4606127400e-02 -1.7017880139e-03 -6.3812977394e-21) (0.0000000000e+00 0.0000000000e+00 0.0000000000e+00)) ((2.0658999865e-02 5.0276803846e-03 1.2166732677e+00) (8.5089400695e-06 1.2303063700e-04 1.1136119924e-03) (0.0000000000e+00 0.0000000000e+00 0.0000000000e+00))
1.4097602606e-01	((8.4507184534e-01 -2.9760204139e+00 -9.5558050813e-18) (2.4561705152e-02 -1.6777154896e-03 -1.6936814457e-21) (0.0000000000e+00 0.0000000000e+00 0.0000000000e+00)) ((1.4880102069e-02 4.2253592267e-03 8.0429388057e-01) (8.3885774482e-06 1.2280852576e-04 1.0970573064e-03) (0.0000000000e+00 0.0000000000e+00 0.0000000000e+00))
1.4321486504e-01	((9.0332950444e-01 -4.3293740325e+00 -5.8898419883e-18) (2.4532055895e-02 -1.6988888314e-03 -8.2679106729e-21) (0.0000000000e+00 0.0000000000e+00 0.0000000000e+00)) ((2.1646870163e-02 4.5166475222e-03 5.8571099287e-01) (8.4944441570e-06 1.2266027948e-04 1.0610519580e-03) (0.0000000000e+00 0.0000000000e+00 0.0000000000e+00))
1.4549606363e-01	((8.4354142412e-01 1.9190097139e+00 -7.5140934320e-18) (2.4389277300e-02 -1.7137120810e-03 -4.7544843947e-21) (0.0000000000e+00 0.0000000000e+00 0.0000000000e+00)) ((-9.5950485697e-03 4.2177071206e-03 6.0282491093e+00) (8.5685604052e-06 1.2194638650e-04 1.0115605145e-03) (0.0000000000e+00 0.0000000000e+00 0.0000000000e+00))
1.4779342767e-01	((8.6001735801e-01 2.1081395630e+00 -6.7374064940e-18) (2.4353707634e-02 -1.7227560460e-03 -2.7979338730e-21) (0.0000000000e+00 0.0000000000e+00 0.0000000000e+00)) ((-1.0540697815e-02 4.3000867901e-03 6.3046376064e+00) (8.6137802300e-06 1.2176853817e-04 9.8944495429e-04) (0.0000000000e+00 0.0000000000e+00 0.0000000000e+00))
1.5006080206e-01	((7.2972772099e-01 -6.8586006588e-02 -6.0992219070e-18) (2.4235843304e-02 -1.7177130081e-03 -3.9091454779e-21) (0.0000000000e+00 0.0000000000e+00 0.0000000000e+00)) ((3.4293003294e-04 3.6486386050e-03 4.0949376943e+00) (8.5885650407e-06 1.2117921652e-04 9.3601721745e-04) (0.0000000000e+00 0.0000000000e+00 0.0000000000e+00))
1.5229315538e-01	((7.5957009222e-01 2.5256881649e-01 -5.3951847414e-18) (2.4204249339e-02 -1.6875221406e-03 -1.5473861578e-21) (0.0000000000e+00 0.0000000000e+00 0.0000000000e+00)) ((-1.2628440825e-03 3.7978504611e-03 4.0505857460e+00) (8.4376107032e-06 1.2102124670e-04 9.4161911391e-04) (0.0000000000e+00 0.0000000000e+00 0.0000000000e+00))
1.5453912204e-01	((6.4557466758e-01 3.7058798318e-01 -9.6706883299e-18) (2.4183017669e-02 -1.6330804165e-03 -7.0486042667e-21) (0.0000000000e+00 0.0000000000e+00 0.0000000000e+00)) ((-1.8529399159e-03 3.2278733379e-03 3.8516319110e+00) (8.1654020827e-06 1.2091508835e-04 9.8766447763e-04) (0.0000000000e+00 0.0000000000e+00 0.0000000000e+00))
1.5671957707e-01	((1.0701388953e+00 6.4379668281e-01 -6.0348154530e-18) (2.4177063380e-02 -1.5848056581e-03 -6.1062761761e-21) (0.0000000000e+00 0.0000000000e+00 0.0000000000e+00)) ((-3.2189834141e-03 5.3506944767e-03 5.2395540850e+00) (7.9240282907e-06 1.2088531690e-04 9.8328060981e-04) (0.0000000000e+00 0.0000000000e+00 0.0000000000e+00))
1.5890538236e-01	((1.5058197329e+00 3.4467005847e+00 -9.1520381249e-18) (2.4082150136e-02 -1.5855517938e-03 -9.2963129069e-22) (0.0000000000e+00 0.0000000000e+00 0.0000000000e+00)) ((-1.7233502924e-02 7.5290986643e-03 8.4423507018e+00) (7.9277589691e-06 1.2041075068e-04 9.7588970767e-04) (0.0000000000e+00 0.0000000000e+00 0.0000000000e+00))
1.6118239694e-01	((1.8811378716e+00 6.1169851088e+00 -1.0798115432e-17) (2.4075238503e-02 -1.6306294719e-03 -4.5405061790e-21) (0.0000000000e+00 0.0000000000e+00 0.0000000000e+00)) ((-3.0584925544e-02 9.4056893581e-03 1.0617610162e+01) (8.1531473595e-06 1.2037619252e-04 9.3584573628e-04) (0.0000000000e+00 0.0000000000e+00 0.0000000000e+00))
1.6344115593e-01	((1.6286925842e+00 4.8410129899e+00 -1.0834539016e-17) (2.4051531245e-02 -1.6364679857e-03 -4.0108945400e-21) (0.0000000000e+00 0.0000000000e+00 0.0000000000e+00)) ((-2.4205064950e-02 8.1434629209e-03 8.9052320773e+00) (8.1823399283e-06 1.2025765623e-04 9.2024194479e-04) (0.0000000000e+00 0.0000000000e+00 0.0000000000e+00))
1.6566435922e-01	((1.2608744103e+00 5.2585755268e+00 -8.3363206844e-18) (2.3968974909e-02 -1.6140670911e-03 -8.4066328925e-22) (0.0000000000e+00 0.0000000000e+00 0.0000000000e+00)) ((-2.6292877634e-02 6.3043720516e-03 7.4544938339e+00) (8.0703354556e-06 1.1984487455e-04 9.3427987484e-04) (0.0000000000e+00 0.0000000000e+00 0.0000000000e+00))
1.6784667936e-01	((1.4602202256e+00 2.5670038528e+00 -3.3441366505e-18) (2.3994279017e-02 -1.5627231370e-03 -7.1111512392e-21) (0.0000000000e+00 0.0000000000e+00 0.0000000000e+00)) ((-1.2835019264e-02 7.3011011280e-03 5.7000146828e+00) (7.8136156848e-06 1.1997139508e-04 1.0130621395e-03) (0.0000000000e+00 0.0000000000e+00 0.0000000000e+00))
1.6995926898e-01	((1.4996321309e+00 2.5283612265e+00 -2.8169223359e-18) (2.3995192623e-02 -1.5231357284e-03 -5.4848100889e-21) (0.0000000000e+00 0.0000000000e+00 0.0000000000e+00)) ((-1.2641806132e-02 7.4981606543e-03 5.1857802421e+00) (7.6156786418e-06 1.1997596312e-04 1.0386570584e-03) (0.0000000000e+00 0.0000000000e+00 0.0000000000e+00))
1.7208194883e-01	((1.8000900379e+00 5.2762471257e+00 -4.6086830880e-18) (2.4027065111e-02 -1.5195249603e-03 -3.8394128759e-21) (0.0000000000e+00 0.0000000000e+00 0.0000000000e+00)) ((-2.6381235628e-02 9.0004501894e-03 7.2223444638e+00) (7.5976248016e-06 1.2013532555e-04 1.0700415917e-03) (0.0000000000e+00 0.0000000000e+00 0.0000000000e+00))
1.7429814974e-01	((1.6171465695e+00 2.8698117149e+00 -2.3965290053e-18) (2.3934671774e-02 -1.5892370017e-03 -4.4201768094e-21) (0.0000000000e+00 0.0000000000e+00 0.0000000000e+00)) ((-1.4349058574e-02 8.0857328476e-03 5.9416603785e+00) (7.9461850084e-06 1.1967335887e-04 1.0104195286e-03) (0.0000000000e+00 0.0000000000e+00 0.0000000000e+00))
1.7649144287e-01	((1.1880211470e+00 4.5791779990e+00 -4.7419546091e-18) (2.3840829407e-02 -1.5654586171e-03 -1.7328911113e-21) (0.0000000000e+00 0.0000000000e+00 0.0000000000e+00)) ((-2.2895889995e-02 5.9401057352e-03 6.6206358576e+00) (7.8272930854e-06 1.1920414704e-04 1.0260615997e-03) (0.0000000000e+00 0.0000000000e+00 0.0000000000e+00))
1.7863309529e-01	((1.1024142519e+00 2.8948355274e+00 -4.5646910126e-18) (2.3777557312e-02 -1.5137536530e-03 -2.8788730560e-21) (0.0000000000e+00 0.0000000000e+00 0.0000000000e+00)) ((-1.4474177637e-02 5.5120712596e-03 4.9140798350e+00) (7.5687682648e-06 1.1888778656e-04 1.0489114372e-03) (0.0000000000e+00 0.0000000000e+00 0.0000000000e+00))
1.8077528235e-01	((8.4591155616e-01 2.4529265497e+00 -3.5148047311e-18) (2.3685171232e-02 -1.4983730116e-03 -6.1214413605e-22) (0.0000000000e+00 0.0000000000e+00 0.0000000000e+00)) ((-1.2264632749e-02 4.2295577808e-03 3.9235614412e+00) (7.4918650581e-06 1.1842585616e-04 1.0566841698e-03) (0.0000000000e+00 0.0000000000e+00 0.0000000000e+00))