# Forces         
# CofR           : (0.0000000000e+00 0.0000000000e+00 0.0000000000e+00)
# Time           forces(pressure viscous porous) moment(pressure viscous porous)
9.0084455356e-01	((6.3127016010e+00 3.0048386602e+01 -1.3890294418e-19) (1.3359767227e-01 -1.9234074147e-02 6.8676588547e-22) (0.0000000000e+00 0.0000000000e+00 0.0000000000e+00)) ((-1.5024193301e+00 3.1563508005e-01 7.8906468143e+00) (9.6170370733e-04 6.6798836135e-03 -2.8590027842e-02) (0.0000000000e+00 0.0000000000e+00 0.0000000000e+00))
9.0205074132e-01	((6.3104978362e+00 3.0051261344e+01 -1.3871820110e-19) (1.3357048618e-01 -1.9222699518e-02 6.8644189288e-22) (0.0000000000e+00 0.0000000000e+00 0.0000000000e+00)) ((-1.5025630672e+00 3.1552489181e-01 7.8903596260e+00) (9.6113497592e-04 6.6785243091e-03 -2.8584230548e-02) (0.0000000000e+00 0.0000000000e+00 0.0000000000e+00))
9.0325659630e-01	((6.3082350421e+00 3.0054049148e+01 -1.3854677778e-19) (1.3354342254e-01 -1.9211390020e-02 6.8609591236e-22) (0.0000000000e+00 0.0000000000e+00 0.0000000000e+00)) ((-1.5027024574e+00 3.1541175210e-01 7.8899830722e+00) (9.6056950099e-04 6.6771711268e-03 -2.8578467969e-02) (0.0000000000e+00 0.0000000000e+00 0.0000000000e+00))
9.0446211465e-01	((6.3060242011e+00 3.0056898251e+01 -1.3836653273e-19) (1.3351649330e-01 -1.9200128635e-02 6.8575276761e-22) (0.0000000000e+00 0.0000000000e+00 0.0000000000e+00)) ((-1.5028449126e+00 3.1530121006e-01 7.8896555590e+00) (9.6000643175e-04 6.6758246650e-03 -2.8572732278e-02) (0.0000000000e+00 0.0000000000e+00 0.0000000000e+00))
9.0566729848e-01	((6.3038016158e+00 3.0059706295e+01 -1.3819313916e-19) (1.3348969748e-01 -1.9188919691e-02 6.8540597724e-22) (0.0000000000e+00 0.0000000000e+00 0.0000000000e+00)) ((-1.5029853148e+00 3.1519008079e-01 7.8892987815e+00) (9.5944598457e-04 6.6744848741e-03 -2.8567027018e-02) (0.0000000000e+00 0.0000000000e+00 0.0000000000e+00))
9.0687214379e-01	((6.3016076598e+00 3.0062516824e+01 -1.3801837144e-19) (1.3346304000e-01 -1.9177769482e-02 6.8506211089e-22) (0.0000000000e+00 0.0000000000e+00 0.0000000000e+00)) ((-1.5031258412e+00 3.1508038299e-01 7.8889636631e+00) (9.5888847411e-04 6.6731520000e-03 -2.8561349859e-02) (0.0000000000e+00 0.0000000000e+00 0.0000000000e+00))
9.0807665884e-01	((6.2993865330e+00 3.0065303216e+01 -1.3784978162e-19) (1.3343652780e-01 -1.9166679932e-02 6.8470505944e-22) (0.0000000000e+00 0.0000000000e+00 0.0000000000e+00)) ((-1.5032651608e+00 3.1496932665e-01 7.8885715573e+00) (9.5833399659e-04 6.6718263900e-03 -2.8555705169e-02) (0.0000000000e+00 0.0000000000e+00 0.0000000000e+00))
9.0928083951e-01	((6.2972760286e+00 3.0068108851e+01 -1.3766800369e-19) (1.3341014060e-01 -1.9155638154e-02 6.8436860088e-22) (0.0000000000e+00 0.0000000000e+00 0.0000000000e+00)) ((-1.5034054426e+00 3.1486380143e-01 7.8883208487e+00) (9.5778190770e-04 6.6705070301e-03 -2.8550086731e-02) (0.0000000000e+00 0.0000000000e+00 0.0000000000e+00))
9.1048468793e-01	((6.2951870678e+00 3.0070907436e+01 -1.3748739083e-19) (1.3338388018e-01 -1.9144644144e-02 6.8403709754e-22) (0.0000000000e+00 0.0000000000e+00 0.0000000000e+00)) ((-1.5035453718e+00 3.1475935339e-01 7.8880911689e+00) (9.5723220722e-04 6.6691940088e-03 -2.8544496838e-02) (0.0000000000e+00 0.0000000000e+00 0.0000000000e+00))
9.1168820622e-01	((6.2930739028e+00 3.0073699423e+01 -1.3731141724e-19) (1.3335778000e-01 -1.9133712191e-02 6.8368910071e-22) (0.0000000000e+00 0.0000000000e+00 0.0000000000e+00)) ((-1.5036849712e+00 3.1465369514e-01 7.8877977790e+00) (9.5668560957e-04 6.6678890000e-03 -2.8538937024e-02) (0.0000000000e+00 0.0000000000e+00 0.0000000000e+00))
9.1289139656e-01	((6.2909629868e+00 3.0076456615e+01 -1.3713869658e-19) (1.3333180337e-01 -1.9122826703e-02 6.8333973918e-22) (0.0000000000e+00 0.0000000000e+00 0.0000000000e+00)) ((-1.5038228308e+00 3.1454814934e-01 7.8875004261e+00) (9.5614133514e-04 6.6665901683e-03 -2.8533406181e-02) (0.0000000000e+00 0.0000000000e+00 0.0000000000e+00))
9.1409426118e-01	((6.2888521875e+00 3.0079176690e+01 -1.3697218541e-19) (1.3330595313e-01 -1.9112010769e-02 6.8298717130e-22) (0.0000000000e+00 0.0000000000e+00 0.0000000000e+00)) ((-1.5039588345e+00 3.1444260938e-01 7.8871821971e+00) (9.5560053845e-04 6.6652976566e-03 -2.8527898588e-02) (0.0000000000e+00 0.0000000000e+00 0.0000000000e+00))
9.1529680237e-01	((6.2867904963e+00 3.0081937659e+01 -1.3679680455e-19) (1.3328021719e-01 -1.9101255933e-02 6.8264298592e-22) (0.0000000000e+00 0.0000000000e+00 0.0000000000e+00)) ((-1.5040968830e+00 3.1433952481e-01 7.8869316320e+00) (9.5506279666e-04 6.6640108595e-03 -2.8522410966e-02) (0.0000000000e+00 0.0000000000e+00 0.0000000000e+00))
9.1649902250e-01	((6.2847385725e+00 3.0084648085e+01 -1.3662766964e-19) (1.3325460803e-01 -1.9090539343e-02 6.8229701416e-22) (0.0000000000e+00 0.0000000000e+00 0.0000000000e+00)) ((-1.5042324043e+00 3.1423692863e-01 7.8866641665e+00) (9.5452696715e-04 6.6627304017e-03 -2.8516954705e-02) (0.0000000000e+00 0.0000000000e+00 0.0000000000e+00))
9.1770092401e-01	((6.2827237795e+00 3.0087399854e+01 -1.3645144181e-19) (1.3322911716e-01 -1.9079881912e-02 6.8195520100e-22) (0.0000000000e+00 0.0000000000e+00 0.0000000000e+00)) ((-1.5043699927e+00 3.1413618898e-01 7.8864408141e+00) (9.5399409560e-04 6.6614558580e-03 -2.8511527156e-02) (0.0000000000e+00 0.0000000000e+00 0.0000000000e+00))
9.1890250950e-01	((6.2806830670e+00 3.0090159465e+01 -1.3627791865e-19) (1.3320374649e-01 -1.9069256844e-02 6.8159888614e-22) (0.0000000000e+00 0.0000000000e+00 0.0000000000e+00)) ((-1.5045079733e+00 3.1403415335e-01 7.8861677836e+00) (9.5346284219e-04 6.6601873244e-03 -2.8506129706e-02) (0.0000000000e+00 0.0000000000e+00 0.0000000000e+00))
9.2010378165e-01	((6.2786653486e+00 3.0092822288e+01 -1.3611308483e-19) (1.3317853533e-01 -1.9058699942e-02 6.8124907173e-22) (0.0000000000e+00 0.0000000000e+00 0.0000000000e+00)) ((-1.5046411144e+00 3.1393326743e-01 7.8859093752e+00) (9.5293499711e-04 6.6589267665e-03 -2.8500758113e-02) (0.0000000000e+00 0.0000000000e+00 0.0000000000e+00))
9.2130475060e-01	((6.2766499233e+00 3.0095573540e+01 -1.3593690206e-19) (1.3315344664e-01 -1.9048185385e-02 6.8088628879e-22) (0.0000000000e+00 0.0000000000e+00 0.0000000000e+00)) ((-1.5047786770e+00 3.1383249616e-01 7.8856473591e+00) (9.5240926925e-04 6.6576723318e-03 -2.8495412435e-02) (0.0000000000e+00 0.0000000000e+00 0.0000000000e+00))
9.2250541956e-01	((6.2746544234e+00 3.0098217715e+01 -1.3577457124e-19) (1.3312846699e-01 -1.9037714454e-02 6.8052841278e-22) (0.0000000000e+00 0.0000000000e+00 0.0000000000e+00)) ((-1.5049108857e+00 3.1373272117e-01 7.8853861212e+00) (9.5188572272e-04 6.6564233495e-03 -2.8490089854e-02) (0.0000000000e+00 0.0000000000e+00 0.0000000000e+00))
9.2370576932e-01	((6.2726494666e+00 3.0101239197e+01 -1.3557499659e-19) (1.3310360426e-01 -1.9027271264e-02 6.8031023343e-22) (0.0000000000e+00 0.0000000000e+00 0.0000000000e+00)) ((-1.5050619598e+00 3.1363247333e-01 7.8850303768e+00) (9.5136356319e-04 6.6551802132e-03 -2.8484800730e-02) (0.0000000000e+00 0.0000000000e+00 0.0000000000e+00))
9.2490577126e-01	((6.2706365253e+00 3.0104205133e+01 -1.3538510564e-19) (1.3307891513e-01 -1.9016905324e-02 6.7990314361e-22) (0.0000000000e+00 0.0000000000e+00 0.0000000000e+00)) ((-1.5052102567e+00 3.1353182627e-01 7.8846558609e+00) (9.5084526621e-04 6.6539457563e-03 -2.8479552623e-02) (0.0000000000e+00 0.0000000000e+00 0.0000000000e+00))
9.2610548092e-01	((6.2686766181e+00 3.0106839515e+01 -1.3522325943e-19) (1.3305433445e-01 -1.9006607995e-02 6.7954033576e-22) (0.0000000000e+00 0.0000000000e+00 0.0000000000e+00)) ((-1.5053419757e+00 3.1343383090e-01 7.8843983582e+00) (9.5033039974e-04 6.6527167225e-03 -2.8474321469e-02) (0.0000000000e+00 0.0000000000e+00 0.0000000000e+00))
9.2730491000e-01	((6.2667288644e+00 3.0109460727e+01 -1.3506267843e-19) (1.3302983243e-01 -1.8996356515e-02 6.7917200445e-22) (0.0000000000e+00 0.0000000000e+00 0.0000000000e+00)) ((-1.5054730364e+00 3.1333644322e-01 7.8841486461e+00) (9.4981782573e-04 6.6514916213e-03 -2.8469107670e-02) (0.0000000000e+00 0.0000000000e+00 0.0000000000e+00))
9.2850407104e-01	((6.2647961257e+00 3.0112069870e+01 -1.3490443285e-19) (1.3300541298e-01 -1.8986137971e-02 6.7880291225e-22) (0.0000000000e+00 0.0000000000e+00 0.0000000000e+00)) ((-1.5056034935e+00 3.1323980628e-01 7.8839029984e+00) (9.4930689857e-04 6.6502706491e-03 -2.8463907687e-02) (0.0000000000e+00 0.0000000000e+00 0.0000000000e+00))
9.2970286261e-01	((6.2628757940e+00 3.0114658253e+01 -1.3474620949e-19) (1.3298111199e-01 -1.8975994356e-02 6.7864646150e-22) (0.0000000000e+00 0.0000000000e+00 0.0000000000e+00)) ((-1.5057329127e+00 3.1314378970e-01 7.8836603301e+00) (9.4879971780e-04 6.6490555997e-03 -2.8458736244e-02) (0.0000000000e+00 0.0000000000e+00 0.0000000000e+00))
9.3090135848e-01	((6.2609668328e+00 3.0117239120e+01 -1.3458891917e-19) (1.3295695489e-01 -1.8965934686e-02 6.7828734539e-22) (0.0000000000e+00 0.0000000000e+00 0.0000000000e+00)) ((-1.5058619560e+00 3.1304834164e-01 7.8834192010e+00) (9.4829673432e-04 6.6478477446e-03 -2.8453596454e-02) (0.0000000000e+00 0.0000000000e+00 0.0000000000e+00))
9.3209960480e-01	((6.2590710798e+00 3.0119809159e+01 -1.3443301486e-19) (1.3293290220e-01 -1.8955936970e-02 6.7791974348e-22) (0.0000000000e+00 0.0000000000e+00 0.0000000000e+00)) ((-1.5059904579e+00 3.1295355399e-01 7.8831827312e+00) (9.4779684850e-04 6.6466451098e-03 -2.8448474000e-02) (0.0000000000e+00 0.0000000000e+00 0.0000000000e+00))
9.3329756520e-01	((6.2571887590e+00 3.0122371051e+01 -1.3427660631e-19) (1.3290891697e-01 -1.8945961316e-02 6.7775968949e-22) (0.0000000000e+00 0.0000000000e+00 0.0000000000e+00)) ((-1.5061185525e+00 3.1285943795e-01 7.8829498554e+00) (9.4729806581e-04 6.6454458486e-03 -2.8443364628e-02) (0.0000000000e+00 0.0000000000e+00 0.0000000000e+00))
9.3449514625e-01	((6.2553182959e+00 3.0124917122e+01 -1.3412200047e-19) (1.3288510436e-01 -1.8936093707e-02 6.7739955684e-22) (0.0000000000e+00 0.0000000000e+00 0.0000000000e+00)) ((-1.5062458561e+00 3.1276591479e-01 7.8827184486e+00) (9.4680468537e-04 6.6442552180e-03 -2.8438299732e-02) (0.0000000000e+00 0.0000000000e+00 0.0000000000e+00))
9.3569250734e-01	((6.2534614119e+00 3.0127461961e+01 -1.3396963780e-19) (1.3286139963e-01 -1.8926294796e-02 6.7703117806e-22) (0.0000000000e+00 0.0000000000e+00 0.0000000000e+00)) ((-1.5063730981e+00 3.1267307059e-01 7.8824903288e+00) (9.4631473982e-04 6.6430699815e-03 -2.8433249129e-02) (0.0000000000e+00 0.0000000000e+00 0.0000000000e+00))
9.3688959395e-01	((6.2516180453e+00 3.0129992200e+01 -1.3381645127e-19) (1.3283775974e-01 -1.8916516356e-02 6.7688103478e-22) (0.0000000000e+00 0.0000000000e+00 0.0000000000e+00)) ((-1.5064996100e+00 3.1258090227e-01 7.8822668591e+00) (9.4582581781e-04 6.6418879869e-03 -2.8428206590e-02) (0.0000000000e+00 0.0000000000e+00 0.0000000000e+00))
9.3808630703e-01	((6.2497854530e+00 3.0132509457e+01 -1.3366553312e-19) (1.3281431700e-01 -1.8906834908e-02 6.7651906713e-22) (0.0000000000e+00 0.0000000000e+00 0.0000000000e+00)) ((-1.5066254728e+00 3.1248927265e-01 7.8820444593e+00) (9.4534174542e-04 6.6407158502e-03 -2.8423216620e-02) (0.0000000000e+00 0.0000000000e+00 0.0000000000e+00))
9.3928284420e-01	((6.2479646185e+00 3.0135018560e+01 -1.3351552844e-19) (1.3279099124e-01 -1.8897173492e-02 6.7614363622e-22) (0.0000000000e+00 0.0000000000e+00 0.0000000000e+00)) ((-1.5067509280e+00 3.1239823092e-01 7.8818250764e+00) (9.4485867459e-04 6.6395495619e-03 -2.8418242141e-02) (0.0000000000e+00 0.0000000000e+00 0.0000000000e+00))
9.4047900567e-01	((6.2461581381e+00 3.0137508710e+01 -1.3336523383e-19) (1.3276775945e-01 -1.8887552049e-02 6.7601724395e-22) (0.0000000000e+00 0.0000000000e+00 0.0000000000e+00)) ((-1.5068754355e+00 3.1230790690e-01 7.8816094559e+00) (9.4437760247e-04 6.6383879727e-03 -2.8413292371e-02) (0.0000000000e+00 0.0000000000e+00 0.0000000000e+00))
9.4167491479e-01	((6.2443619481e+00 3.0139989424e+01 -1.3321707680e-19) (1.3274471285e-01 -1.8878011533e-02 6.7565780945e-22) (0.0000000000e+00 0.0000000000e+00 0.0000000000e+00)) ((-1.5069994712e+00 3.1221809740e-01 7.8813955835e+00) (9.4390057666e-04 6.6372356427e-03 -2.8408384998e-02) (0.0000000000e+00 0.0000000000e+00 0.0000000000e+00))
9.4287059100e-01	((6.2425794453e+00 3.0142456749e+01 -1.3306833549e-19) (1.3272172165e-01 -1.8868465291e-02 6.7553218119e-22) (0.0000000000e+00 0.0000000000e+00 0.0000000000e+00)) ((-1.5071228375e+00 3.1212897227e-01 7.8811860326e+00) (9.4342326457e-04 6.6360860824e-03 -2.8403479452e-02) (0.0000000000e+00 0.0000000000e+00 0.0000000000e+00))
9.4406589497e-01	((6.2408078869e+00 3.0144911774e+01 -1.3292227277e-19) (1.3269893917e-01 -1.8859027354e-02 6.7517544085e-22) (0.0000000000e+00 0.0000000000e+00 0.0000000000e+00)) ((-1.5072455887e+00 3.1204039434e-01 7.8809786452e+00) (9.4295136772e-04 6.6349469584e-03 -2.8398632938e-02) (0.0000000000e+00 0.0000000000e+00 0.0000000000e+00))
9.4526106815e-01	((6.2390486950e+00 3.0147352361e+01 -1.3277597944e-19) (1.3267620803e-01 -1.8849571539e-02 6.7504909696e-22) (0.0000000000e+00 0.0000000000e+00 0.0000000000e+00)) ((-1.5073676181e+00 3.1195243475e-01 7.8807741811e+00) (9.4247857696e-04 6.6338104016e-03 -2.8393781711e-02) (0.0000000000e+00 0.0000000000e+00 0.0000000000e+00))
9.4645577079e-01	((6.2372998305e+00 3.0149784630e+01 -1.3263047891e-19) (1.3265368850e-01 -1.8840239416e-02 6.7468343772e-22) (0.0000000000e+00 0.0000000000e+00 0.0000000000e+00)) ((-1.5074892315e+00 3.1186499152e-01 7.8805717718e+00) (9.4201197080e-04 6.6326844249e-03 -2.8388994877e-02) (0.0000000000e+00 0.0000000000e+00 0.0000000000e+00))
9.4765042116e-01	((6.2355638839e+00 3.0152205330e+01 -1.3248315427e-19) (1.3263122432e-01 -1.8830886196e-02 6.7454444948e-22) (0.0000000000e+00 0.0000000000e+00 0.0000000000e+00)) ((-1.5076102665e+00 3.1177819420e-01 7.8803721987e+00) (9.4154430980e-04 6.6315612161e-03 -2.8384199869e-02) (0.0000000000e+00 0.0000000000e+00 0.0000000000e+00))
9.4884455851e-01	((6.2338415140e+00 3.0154611743e+01 -1.3233893038e-19) (1.3260897783e-01 -1.8821657875e-02 6.7415543868e-22) (0.0000000000e+00 0.0000000000e+00 0.0000000000e+00)) ((-1.5077305872e+00 3.1169207570e-01 7.8801763464e+00) (9.4108289377e-04 6.6304488917e-03 -2.8379473617e-02) (0.0000000000e+00 0.0000000000e+00 0.0000000000e+00))
9.5003866312e-01	((6.2321309305e+00 3.0157006206e+01 -1.3219444945e-19) (1.3258677116e-01 -1.8812391675e-02 6.7400701894e-22) (0.0000000000e+00 0.0000000000e+00 0.0000000000e+00)) ((-1.5078503103e+00 3.1160654653e-01 7.8799833147e+00) (9.4061958374e-04 6.6293385580e-03 -2.8374736949e-02) (0.0000000000e+00 0.0000000000e+00 0.0000000000e+00))
9.5123226423e-01	((6.2304304561e+00 3.0159388250e+01 -1.3205347770e-19) (1.3256476600e-01 -1.8803268426e-02 6.7360447317e-22) (0.0000000000e+00 0.0000000000e+00 0.0000000000e+00)) ((-1.5079694125e+00 3.1152152281e-01 7.8797918251e+00) (9.4016342129e-04 6.6282382998e-03 -2.8370063010e-02) (0.0000000000e+00 0.0000000000e+00 0.0000000000e+00))
9.5242579667e-01	((6.2287425831e+00 3.0161759294e+01 -1.3191160230e-19) (1.3254280022e-01 -1.8794109131e-02 6.7346724618e-22) (0.0000000000e+00 0.0000000000e+00 0.0000000000e+00)) ((-1.5080879647e+00 3.1143712915e-01 7.8796035593e+00) (9.3970545654e-04 6.6271400109e-03 -2.8365377437e-02) (0.0000000000e+00 0.0000000000e+00 0.0000000000e+00))
9.5361891881e-01	((6.2270650194e+00 3.0164117363e+01 -1.3177229835e-19) (1.3252107042e-01 -1.8785078732e-02 6.7305890026e-22) (0.0000000000e+00 0.0000000000e+00 0.0000000000e+00)) ((-1.5082058682e+00 3.1135325097e-01 7.8794166810e+00) (9.3925393661e-04 6.6260535212e-03 -2.8360765353e-02) (0.0000000000e+00 0.0000000000e+00 0.0000000000e+00))
9.5481184785e-01	((6.2254001522e+00 3.0166464225e+01 -1.3163201227e-19) (1.3249938549e-01 -1.8776018366e-02 6.7292575639e-22) (0.0000000000e+00 0.0000000000e+00 0.0000000000e+00)) ((-1.5083232112e+00 3.1127000761e-01 7.8792329981e+00) (9.3880091832e-04 6.6249692746e-03 -2.8356146154e-02) (0.0000000000e+00 0.0000000000e+00 0.0000000000e+00))
9.5600457177e-01	((6.2237459210e+00 3.0168799792e+01 -1.3149467086e-19) (1.3247791261e-01 -1.8767068740e-02 6.7249193770e-22) (0.0000000000e+00 0.0000000000e+00 0.0000000000e+00)) ((-1.5084399896e+00 3.1118729605e-01 7.8790510609e+00) (9.3835343699e-04 6.6238956307e-03 -2.8351583422e-02) (0.0000000000e+00 0.0000000000e+00 0.0000000000e+00))
9.5719685980e-01	((6.2221042790e+00 3.0171120351e+01 -1.3135708021e-19) (1.3245647197e-01 -1.8758132017e-02 6.7237430900e-22) (0.0000000000e+00 0.0000000000e+00 0.0000000000e+00)) ((-1.5085560176e+00 3.1110521395e-01 7.8788722611e+00) (9.3790660087e-04 6.6228235985e-03 -2.8347027132e-02) (0.0000000000e+00 0.0000000000e+00 0.0000000000e+00))
9.5838914782e-01	((6.2204736235e+00 3.0173433509e+01 -1.3122049606e-19) (1.3243513520e-01 -1.8749212722e-02 6.7224214975e-22) (0.0000000000e+00 0.0000000000e+00 0.0000000000e+00)) ((-1.5086716754e+00 3.1102368118e-01 7.8786958731e+00) (9.3746063608e-04 6.6217567602e-03 -2.8342481255e-02) (0.0000000000e+00 0.0000000000e+00 0.0000000000e+00))
9.5958089984e-01	((6.2188535839e+00 3.0175734146e+01 -1.3108636758e-19) (1.3241402653e-01 -1.8740425107e-02 6.7180137789e-22) (0.0000000000e+00 0.0000000000e+00 0.0000000000e+00)) ((-1.5087867073e+00 3.1094267920e-01 7.8785217200e+00) (9.3702125533e-04 6.6207013264e-03 -2.8338016785e-02) (0.0000000000e+00 0.0000000000e+00 0.0000000000e+00))
9.6077250067e-01	((6.2172460007e+00 3.0178022643e+01 -1.3095150948e-19) (1.3239293258e-01 -1.8731573063e-02 6.7167321110e-22) (0.0000000000e+00 0.0000000000e+00 0.0000000000e+00)) ((-1.5089011321e+00 3.1086230004e-01 7.8783508535e+00) (9.3657865315e-04 6.6196466291e-03 -2.8333537607e-02) (0.0000000000e+00 0.0000000000e+00 0.0000000000e+00))
9.6196410150e-01	((6.2156488319e+00 3.0180301629e+01 -1.3081700108e-19) (1.3237196021e-01 -1.8722762403e-02 6.7154525350e-22) (0.0000000000e+00 0.0000000000e+00 0.0000000000e+00)) ((-1.5090150815e+00 3.1078244159e-01 7.8781819248e+00) (9.3613812014e-04 6.6185980103e-03 -2.8329080609e-02) (0.0000000000e+00 0.0000000000e+00 0.0000000000e+00))
9.6315495618e-01	((6.2140607545e+00 3.0182566337e+01 -1.3068273782e-19) (1.3235123140e-01 -1.8714104707e-02 6.7108081157e-22) (0.0000000000e+00 0.0000000000e+00 0.0000000000e+00)) ((-1.5091283168e+00 3.1070303772e-01 7.8780140075e+00) (9.3570523535e-04 6.6175615701e-03 -2.8324705481e-02) (0.0000000000e+00 0.0000000000e+00 0.0000000000e+00))
9.6434581086e-01	((6.2124849859e+00 3.0184816711e+01 -1.3054204957e-19) (1.3233050379e-01 -1.8705383440e-02 6.7094873576e-22) (0.0000000000e+00 0.0000000000e+00 0.0000000000e+00)) ((-1.5092408355e+00 3.1062424929e-01 7.8778488149e+00) (9.3526917202e-04 6.6165251896e-03 -2.8320297627e-02) (0.0000000000e+00 0.0000000000e+00 0.0000000000e+00))
9.6553666554e-01	((6.2109219170e+00 3.0187061542e+01 -1.3040070725e-19) (1.3230988266e-01 -1.8696712775e-02 6.7081582822e-22) (0.0000000000e+00 0.0000000000e+00 0.0000000000e+00)) ((-1.5093530771e+00 3.1054609585e-01 7.8776879665e+00) (9.3483563876e-04 6.6154941332e-03 -2.8315907519e-02) (0.0000000000e+00 0.0000000000e+00 0.0000000000e+00))
9.6672676150e-01	((6.2093689512e+00 3.0189292825e+01 -1.3026183414e-19) (1.3228949941e-01 -1.8688215918e-02 6.7030866132e-22) (0.0000000000e+00 0.0000000000e+00 0.0000000000e+00)) ((-1.5094646412e+00 3.1046844756e-01 7.8775283344e+00) (9.3441079591e-04 6.6144749705e-03 -2.8311595154e-02) (0.0000000000e+00 0.0000000000e+00 0.0000000000e+00))
9.6791679149e-01	((6.2078282388e+00 3.0191514126e+01 -1.3012114513e-19) (1.3226910463e-01 -1.8679642958e-02 6.7017098258e-22) (0.0000000000e+00 0.0000000000e+00 0.0000000000e+00)) ((-1.5095757063e+00 3.1039141194e-01 7.8773720253e+00) (9.3398214789e-04 6.6134552315e-03 -2.8307240105e-02) (0.0000000000e+00 0.0000000000e+00 0.0000000000e+00))
9.6910682148e-01	((6.2062984311e+00 3.0193725973e+01 -1.2998323967e-19) (1.3224881172e-01 -1.8671114812e-02 6.7004021665e-22) (0.0000000000e+00 0.0000000000e+00 0.0000000000e+00)) ((-1.5096862987e+00 3.1031492155e-01 7.8772179571e+00) (9.3355574062e-04 6.6124405862e-03 -2.8302903072e-02) (0.0000000000e+00 0.0000000000e+00 0.0000000000e+00))
9.7029645792e-01	((6.2047769720e+00 3.0195922180e+01 -1.2984973384e-19) (1.3222876137e-01 -1.8662746690e-02 6.6947608364e-22) (0.0000000000e+00 0.0000000000e+00 0.0000000000e+00)) ((-1.5097961090e+00 3.1023884860e-01 7.8770637603e+00) (9.3313733448e-04 6.6114380684e-03 -2.8298643653e-02) (0.0000000000e+00 0.0000000000e+00 0.0000000000e+00))
9.7148555088e-01	((6.2032693797e+00 3.0198106050e+01 -1.2971469967e-19) (1.3220869870e-01 -1.8654340213e-02 6.6936159229e-22) (0.0000000000e+00 0.0000000000e+00 0.0000000000e+00)) ((-1.5099053025e+00 3.1016346898e-01 7.8769144066e+00) (9.3271701064e-04 6.6104349348e-03 -2.8294369761e-02) (0.0000000000e+00 0.0000000000e+00 0.0000000000e+00))
9.7267464383e-01	((6.2017710323e+00 3.0200279634e+01 -1.2957971624e-19) (1.3218874066e-01 -1.8645952501e-02 6.6922929665e-22) (0.0000000000e+00 0.0000000000e+00 0.0000000000e+00)) ((-1.5100139817e+00 3.1008855161e-01 7.8767661029e+00) (9.3229762507e-04 6.6094370332e-03 -2.8290103157e-02) (0.0000000000e+00 0.0000000000e+00 0.0000000000e+00))
9.7386373679e-01	((6.2002791318e+00 3.0202452374e+01 -1.2944352632e-19) (1.3216887888e-01 -1.8637614176e-02 6.6909237071e-22) (0.0000000000e+00 0.0000000000e+00 0.0000000000e+00)) ((-1.5101226187e+00 3.1001395659e-01 7.8766148276e+00) (9.3188070881e-04 6.6084439442e-03 -2.8285856676e-02) (0.0000000000e+00 0.0000000000e+00 0.0000000000e+00))
9.7505247280e-01	((6.1988025926e+00 3.0204592217e+01 -1.2931526038e-19) (1.3214927770e-01 -1.8629443912e-02 6.6844179171e-22) (0.0000000000e+00 0.0000000000e+00 0.0000000000e+00)) ((-1.5102296109e+00 3.0994012963e-01 7.8764738352e+00) (9.3147219562e-04 6.6074638848e-03 -2.8281690610e-02) (0.0000000000e+00 0.0000000000e+00 0.0000000000e+00))
9.7624045028e-01	((6.1973299569e+00 3.0206725333e+01 -1.2918227805e-19) (1.3212966836e-01 -1.8621168098e-02 6.6833524577e-22) (0.0000000000e+00 0.0000000000e+00 0.0000000000e+00)) ((-1.5103362666e+00 3.0986649784e-01 7.8763268764e+00) (9.3105840490e-04 6.6064834179e-03 -2.8277536090e-02) (0.0000000000e+00 0.0000000000e+00 0.0000000000e+00))
9.7742842777e-01	((6.1958646652e+00 3.0208847655e+01 -1.2905335495e-19) (1.3211031617e-01 -1.8612752339e-02 6.6821108411e-22) (0.0000000000e+00 0.0000000000e+00 0.0000000000e+00)) ((-1.5104423828e+00 3.0979323326e-01 7.8761744690e+00) (9.3063761697e-04 6.6055158084e-03 -2.8273421918e-02) (0.0000000000e+00 0.0000000000e+00 0.0000000000e+00))
9.7861640526e-01	((6.1944136060e+00 3.0210957470e+01 -1.2892586669e-19) (1.3209125215e-01 -1.8604254113e-02 6.6808817283e-22) (0.0000000000e+00 0.0000000000e+00 0.0000000000e+00)) ((-1.5105478735e+00 3.0972068030e-01 7.8760322787e+00) (9.3021270565e-04 6.6045626073e-03 -2.8269368079e-02) (0.0000000000e+00 0.0000000000e+00 0.0000000000e+00))
9.7980438274e-01	((6.1929713037e+00 3.0213054804e+01 -1.2880065575e-19) (1.3207240074e-01 -1.8595709982e-02 6.6796231946e-22) (0.0000000000e+00 0.0000000000e+00 0.0000000000e+00)) ((-1.5106527402e+00 3.0964856518e-01 7.8758909654e+00) (9.2978549912e-04 6.6036200371e-03 -2.8265365849e-02) (0.0000000000e+00 0.0000000000e+00 0.0000000000e+00))
9.8099195209e-01	((6.1915358769e+00 3.0215146255e+01 -1.2867993542e-19) (1.3205388651e-01 -1.8587297731e-02 6.6714845439e-22) (0.0000000000e+00 0.0000000000e+00 0.0000000000e+00)) ((-1.5107573127e+00 3.0957679385e-01 7.8757494949e+00) (9.2936488655e-04 6.6026943255e-03 -2.8261466964e-02) (0.0000000000e+00 0.0000000000e+00 0.0000000000e+00))
9.8217847193e-01	((6.1901138322e+00 3.0217209644e+01 -1.2855539682e-19) (1.3203536106e-01 -1.8578792032e-02 6.6705541256e-22) (0.0000000000e+00 0.0000000000e+00 0.0000000000e+00)) ((-1.5108604822e+00 3.0950569161e-01 7.8756120901e+00) (9.2893960162e-04 6.6017680528e-03 -2.8257567061e-02) (0.0000000000e+00 0.0000000000e+00 0.0000000000e+00))
9.8336499178e-01	((6.1887019086e+00 3.0219270388e+01 -1.2843187147e-19) (1.3201691346e-01 -1.8570249093e-02 6.6692006022e-22) (0.0000000000e+00 0.0000000000e+00 0.0000000000e+00)) ((-1.5109635194e+00 3.0943509543e-01 7.8754776582e+00) (9.2851245463e-04 6.6008456728e-03 -2.8253639661e-02) (0.0000000000e+00 0.0000000000e+00 0.0000000000e+00))
9.8455151162e-01	((6.1873005911e+00 3.0221325881e+01 -1.2831196694e-19) (1.3199850751e-01 -1.8561747638e-02 6.6678779032e-22) (0.0000000000e+00 0.0000000000e+00 0.0000000000e+00)) ((-1.5110662940e+00 3.0936502956e-01 7.8753462064e+00) (9.2808738188e-04 6.5999253757e-03 -2.8249708072e-02) (0.0000000000e+00 0.0000000000e+00 0.0000000000e+00))
9.8573803147e-01	((6.1859097060e+00 3.0223373552e+01 -1.2819348681e-19) (1.3198009945e-01 -1.8553302402e-02 6.6665439993e-22) (0.0000000000e+00 0.0000000000e+00 0.0000000000e+00)) ((-1.5111686776e+00 3.0929548530e-01 7.8752174168e+00) (9.2766512009e-04 6.5990049724e-03 -2.8245770921e-02) (0.0000000000e+00 0.0000000000e+00 0.0000000000e+00))
9.8692455131e-01	((6.1845259097e+00 3.0225410959e+01 -1.2807310108e-19) (1.3196167540e-01 -1.8544910528e-02 6.6652478997e-22) (0.0000000000e+00 0.0000000000e+00 0.0000000000e+00)) ((-1.5112705479e+00 3.0922629549e-01 7.8750894751e+00) (9.2724552641e-04 6.5980837698e-03 -2.8241825099e-02) (0.0000000000e+00 0.0000000000e+00 0.0000000000e+00))
9.8811107116e-01	((6.1831530200e+00 3.0227442192e+01 -1.2795244662e-19) (1.3194325132e-01 -1.8536560359e-02 6.6639952623e-22) (0.0000000000e+00 0.0000000000e+00 0.0000000000e+00)) ((-1.5113721096e+00 3.0915765100e-01 7.8749666039e+00) (9.2682801794e-04 6.5971625658e-03 -2.8237870977e-02) (0.0000000000e+00 0.0000000000e+00 0.0000000000e+00))
9.8929663372e-01	((6.1817823914e+00 3.0229465712e+01 -1.2783944922e-19) (1.3192520280e-01 -1.8528508273e-02 6.6510831205e-22) (0.0000000000e+00 0.0000000000e+00 0.0000000000e+00)) ((-1.5114732856e+00 3.0908911957e-01 7.8748384790e+00) (9.2642541363e-04 6.5962601402e-03 -2.8234063969e-02) (0.0000000000e+00 0.0000000000e+00 0.0000000000e+00))
9.9048063442e-01	((6.1804282942e+00 3.0231464020e+01 -1.2771920002e-19) (1.3190696067e-01 -1.8520214480e-02 6.6503619319e-22) (0.0000000000e+00 0.0000000000e+00 0.0000000000e+00)) ((-1.5115732010e+00 3.0902141471e-01 7.8747158982e+00) (9.2601072401e-04 6.5953480334e-03 -2.8230194794e-02) (0.0000000000e+00 0.0000000000e+00 0.0000000000e+00))
9.9166463511e-01	((6.1790852576e+00 3.0233465816e+01 -1.2760028931e-19) (1.3188882499e-01 -1.8511861029e-02 6.6491363780e-22) (0.0000000000e+00 0.0000000000e+00 0.0000000000e+00)) ((-1.5116732908e+00 3.0895426288e-01 7.8745977750e+00) (9.2559305147e-04 6.5944412493e-03 -2.8226299615e-02) (0.0000000000e+00 0.0000000000e+00 0.0000000000e+00))
9.9284863581e-01	((6.1777512788e+00 3.0235463998e+01 -1.2748416090e-19) (1.3187074563e-01 -1.8503546733e-02 6.6479580872e-22) (0.0000000000e+00 0.0000000000e+00 0.0000000000e+00)) ((-1.5117731999e+00 3.0888756394e-01 7.8744815542e+00) (9.2517733667e-04 6.5935372816e-03 -2.8222408843e-02) (0.0000000000e+00 0.0000000000e+00 0.0000000000e+00))
9.9403263650e-01	((6.1764307455e+00 3.0237453818e+01 -1.2736685777e-19) (1.3185268689e-01 -1.8495279455e-02 6.6467973792e-22) (0.0000000000e+00 0.0000000000e+00 0.0000000000e+00)) ((-1.5118726909e+00 3.0882153727e-01 7.8743730251e+00) (9.2476397276e-04 6.5926343445e-03 -2.8218513629e-02) (0.0000000000e+00 0.0000000000e+00 0.0000000000e+00))
9.9521663720e-01	((6.1751176369e+00 3.0239438679e+01 -1.2725059601e-19) (1.3183463846e-01 -1.8487072495e-02 6.6456328448e-22) (0.0000000000e+00 0.0000000000e+00 0.0000000000e+00)) ((-1.5119719339e+00 3.0875588185e-01 7.8742629322e+00) (9.2435362474e-04 6.5917319229e-03 -2.8214612300e-02) (0.0000000000e+00 0.0000000000e+00 0.0000000000e+00))
9.9640063789e-01	((6.1738143534e+00 3.0241414678e+01 -1.2714062019e-19) (1.3181660953e-01 -1.8478918755e-02 6.6445328466e-22) (0.0000000000e+00 0.0000000000e+00 0.0000000000e+00)) ((-1.5120707339e+00 3.0869071767e-01 7.8741551630e+00) (9.2394593773e-04 6.5908304767e-03 -2.8210708165e-02) (0.0000000000e+00 0.0000000000e+00 0.0000000000e+00))
9.9758463858e-01	((6.1725212621e+00 3.0243385084e+01 -1.2703218611e-19) (1.3179861719e-01 -1.8470806590e-02 6.6434717435e-22) (0.0000000000e+00 0.0000000000e+00 0.0000000000e+00)) ((-1.5121692542e+00 3.0862606310e-01 7.8740508491e+00) (9.2354032950e-04 6.5899308594e-03 -2.8206804300e-02) (0.0000000000e+00 0.0000000000e+00 0.0000000000e+00))
9.9876863928e-01	((6.1712387829e+00 3.0245347756e+01 -1.2692592080e-19) (1.3178068054e-01 -1.8462729271e-02 6.6424741604e-22) (0.0000000000e+00 0.0000000000e+00 0.0000000000e+00)) ((-1.5122673878e+00 3.0856193914e-01 7.8739498031e+00) (9.2313646356e-04 6.5890340269e-03 -2.8202906461e-02) (0.0000000000e+00 0.0000000000e+00 0.0000000000e+00))
9.9995263997e-01	((6.1699649267e+00 3.0247304567e+01 -1.2681943015e-19) (1.3176281544e-01 -1.8454690744e-02 6.6415094762e-22) (0.0000000000e+00 0.0000000000e+00 0.0000000000e+00)) ((-1.5123652283e+00 3.0849824634e-01 7.8738511975e+00) (9.2273453722e-04 6.5881407718e-03 -2.8199017749e-02) (0.0000000000e+00 0.0000000000e+00 0.0000000000e+00))
