# Forces         
# CofR           : (0.0000000000e+00 0.0000000000e+00 0.0000000000e+00)
# Time           forces(pressure viscous porous) moment(pressure viscous porous)
1.0024306254e-01	((4.9192107441e+00 3.0036008348e+01 1.4784311215e-18) (1.6308989543e-01 -2.5719388487e-02 -3.4639165818e-21) (0.0000000000e+00 0.0000000000e+00 0.0000000000e+00)) ((-1.5018004174e+00 2.4596053720e-01 9.8791995700e+00) (1.2859694243e-03 8.1544947716e-03 -5.6741667966e-02) (0.0000000000e+00 0.0000000000e+00 0.0000000000e+00))
1.0226817292e-01	((4.9198451441e+00 3.0042443779e+01 1.4787647029e-18) (1.6312309909e-01 -2.5729955948e-02 -3.4651772973e-21) (0.0000000000e+00 0.0000000000e+00 0.0000000000e+00)) ((-1.5021221890e+00 2.4599225721e-01 9.8812061169e+00) (1.2864977974e-03 8.1561549543e-03 -5.6755040360e-02) (0.0000000000e+00 0.0000000000e+00 0.0000000000e+00))
1.0429304486e-01	((4.9204110216e+00 3.0048636489e+01 1.4790969466e-18) (1.6315551743e-01 -2.5740362448e-02 -3.4652483083e-21) (0.0000000000e+00 0.0000000000e+00 0.0000000000e+00)) ((-1.5024318245e+00 2.4602055108e-01 9.8831210336e+00) (1.2870181224e-03 8.1577758717e-03 -5.6768160329e-02) (0.0000000000e+00 0.0000000000e+00 0.0000000000e+00))
1.0631730364e-01	((4.9210673720e+00 3.0054974800e+01 1.4794254175e-18) (1.6318715495e-01 -2.5750396788e-02 -3.4664424189e-21) (0.0000000000e+00 0.0000000000e+00 0.0000000000e+00)) ((-1.5027487400e+00 2.4605336860e-01 9.8851312902e+00) (1.2875198394e-03 8.1593577476e-03 -5.6780889405e-02) (0.0000000000e+00 0.0000000000e+00 0.0000000000e+00))
1.0834126082e-01	((4.9216767356e+00 3.0061120525e+01 1.4797561190e-18) (1.6321821857e-01 -2.5760219017e-02 -3.4664057670e-21) (0.0000000000e+00 0.0000000000e+00 0.0000000000e+00)) ((-1.5030560263e+00 2.4608383678e-01 9.8870742919e+00) (1.2880109508e-03 8.1609109287e-03 -5.6793355634e-02) (0.0000000000e+00 0.0000000000e+00 0.0000000000e+00))
1.1036463254e-01	((4.9223718366e+00 3.0067339490e+01 1.4800875672e-18) (1.6324861940e-01 -2.5769721247e-02 -3.4675563033e-21) (0.0000000000e+00 0.0000000000e+00 0.0000000000e+00)) ((-1.5033669745e+00 2.4611859183e-01 9.8890980878e+00) (1.2884860623e-03 8.1624309701e-03 -5.6805486800e-02) (0.0000000000e+00 0.0000000000e+00 0.0000000000e+00))
1.1238781830e-01	((4.9230343758e+00 3.0073386036e+01 1.4804043451e-18) (1.6327859991e-01 -2.5779089863e-02 -3.4674008534e-21) (0.0000000000e+00 0.0000000000e+00 0.0000000000e+00)) ((-1.5036693018e+00 2.4615171879e-01 9.8910667414e+00) (1.2889544932e-03 8.1639299955e-03 -5.6817424954e-02) (0.0000000000e+00 0.0000000000e+00 0.0000000000e+00))
1.1441026017e-01	((4.9237292275e+00 3.0079571529e+01 1.4807715089e-18) (1.6330799567e-01 -2.5788245176e-02 -3.4685370228e-21) (0.0000000000e+00 0.0000000000e+00 0.0000000000e+00)) ((-1.5039785764e+00 2.4618646137e-01 9.8930940620e+00) (1.2894122588e-03 8.1653997836e-03 -5.6829096634e-02) (0.0000000000e+00 0.0000000000e+00 0.0000000000e+00))
1.1643270203e-01	((4.9244247251e+00 3.0085728089e+01 1.4810976358e-18) (1.6333689964e-01 -2.5797237821e-02 -3.4696217356e-21) (0.0000000000e+00 0.0000000000e+00 0.0000000000e+00)) ((-1.5042864044e+00 2.4622123625e-01 9.8951121260e+00) (1.2898618911e-03 8.1668449819e-03 -5.6840555738e-02) (0.0000000000e+00 0.0000000000e+00 0.0000000000e+00))
1.1845431882e-01	((4.9250741529e+00 3.0091756561e+01 1.4814286274e-18) (1.6336536537e-01 -2.5806147366e-02 -3.4693505058e-21) (0.0000000000e+00 0.0000000000e+00 0.0000000000e+00)) ((-1.5045878280e+00 2.4625370764e-01 9.8970833742e+00) (1.2903073683e-03 8.1682682685e-03 -5.6851872383e-02) (0.0000000000e+00 0.0000000000e+00 0.0000000000e+00))
1.2047577844e-01	((4.9257001489e+00 3.0097732851e+01 1.4817760359e-18) (1.6339324246e-01 -2.5814780340e-02 -3.4703893560e-21) (0.0000000000e+00 0.0000000000e+00 0.0000000000e+00)) ((-1.5048866426e+00 2.4628500744e-01 9.8990383853e+00) (1.2907390170e-03 8.1696621232e-03 -5.6862904945e-02) (0.0000000000e+00 0.0000000000e+00 0.0000000000e+00))
1.2249702837e-01	((4.9262917116e+00 3.0103662699e+01 1.4821191375e-18) (1.6342062499e-01 -2.5823274111e-02 -3.4699886831e-21) (0.0000000000e+00 0.0000000000e+00 0.0000000000e+00)) ((-1.5051831350e+00 2.4631458558e-01 9.9009631149e+00) (1.2911637055e-03 8.1710312494e-03 -5.6873751866e-02) (0.0000000000e+00 0.0000000000e+00 0.0000000000e+00))
1.2451743951e-01	((4.9268051637e+00 3.0109385450e+01 1.4824342029e-18) (1.6344735929e-01 -2.5831524647e-02 -3.4709722971e-21) (0.0000000000e+00 0.0000000000e+00 0.0000000000e+00)) ((-1.5054692725e+00 2.4634025819e-01 9.9027894899e+00) (1.2915762323e-03 8.1723679644e-03 -5.6884330560e-02) (0.0000000000e+00 0.0000000000e+00 0.0000000000e+00))
1.2653785066e-01	((4.9272503930e+00 3.0114966441e+01 1.4827666800e-18) (1.6347345086e-01 -2.5839556621e-02 -3.4719458680e-21) (0.0000000000e+00 0.0000000000e+00 0.0000000000e+00)) ((-1.5057483220e+00 2.4636251965e-01 9.9045469060e+00) (1.2919778310e-03 8.1736725430e-03 -5.6894648829e-02) (0.0000000000e+00 0.0000000000e+00 0.0000000000e+00))
1.2855796702e-01	((4.9277146141e+00 3.0120403778e+01 1.4830656586e-18) (1.6349898667e-01 -2.5847499246e-02 -3.4713588401e-21) (0.0000000000e+00 0.0000000000e+00 0.0000000000e+00)) ((-1.5060201889e+00 2.4638573070e-01 9.9062744452e+00) (1.2923749623e-03 8.1749493335e-03 -5.6904801201e-02) (0.0000000000e+00 0.0000000000e+00 0.0000000000e+00))
1.3057724438e-01	((4.9281643655e+00 3.0125828108e+01 1.4833759040e-18) (1.6352388022e-01 -2.5855224740e-02 -3.4723105501e-21) (0.0000000000e+00 0.0000000000e+00 0.0000000000e+00)) ((-1.5062914054e+00 2.4640821827e-01 9.9079929967e+00) (1.2927612370e-03 8.1761940110e-03 -5.6914698546e-02) (0.0000000000e+00 0.0000000000e+00 0.0000000000e+00))
1.3259652174e-01	((4.9286070473e+00 3.0131142549e+01 1.4836645509e-18) (1.6354818697e-01 -2.5862760561e-02 -3.4732276578e-21) (0.0000000000e+00 0.0000000000e+00 0.0000000000e+00)) ((-1.5065571275e+00 2.4643035236e-01 9.9096765393e+00) (1.2931380280e-03 8.1774093483e-03 -5.6924365754e-02) (0.0000000000e+00 0.0000000000e+00 0.0000000000e+00))
1.3461579910e-01	((4.9290939118e+00 3.0136492872e+01 1.4839639851e-18) (1.6357197896e-01 -2.5870129031e-02 -3.4741532469e-21) (0.0000000000e+00 0.0000000000e+00 0.0000000000e+00)) ((-1.5068246436e+00 2.4645469559e-01 9.9114020139e+00) (1.2935064515e-03 8.1785989480e-03 -5.6933833036e-02) (0.0000000000e+00 0.0000000000e+00 0.0000000000e+00))
1.3663395117e-01	((4.9295734157e+00 3.0141818700e+01 1.4842612800e-18) (1.6359534798e-01 -2.5877432020e-02 -3.4733639691e-21) (0.0000000000e+00 0.0000000000e+00 0.0000000000e+00)) ((-1.5070909350e+00 2.4647867078e-01 9.9131162756e+00) (1.2938716010e-03 8.1797673988e-03 -5.6943182794e-02) (0.0000000000e+00 0.0000000000e+00 0.0000000000e+00))
1.3865197820e-01	((4.9301032658e+00 3.0147143472e+01 1.4845436065e-18) (1.6361823885e-01 -2.5884488160e-02 -3.4742791350e-21) (0.0000000000e+00 0.0000000000e+00 0.0000000000e+00)) ((-1.5073571736e+00 2.4650516329e-01 9.9148604885e+00) (1.2942244080e-03 8.1809119423e-03 -5.6952290784e-02) (0.0000000000e+00 0.0000000000e+00 0.0000000000e+00))
1.4067000523e-01	((4.9305896327e+00 3.0152449105e+01 1.4848351241e-18) (1.6364076178e-01 -2.5891390408e-02 -3.4751712327e-21) (0.0000000000e+00 0.0000000000e+00 0.0000000000e+00)) ((-1.5076224553e+00 2.4652948163e-01 9.9165773549e+00) (1.2945695204e-03 8.1820380890e-03 -5.6961238991e-02) (0.0000000000e+00 0.0000000000e+00 0.0000000000e+00))
1.4268797554e-01	((4.9310994940e+00 3.0157799037e+01 1.4851293884e-18) (1.6366293110e-01 -2.5898145812e-02 -3.4741213840e-21) (0.0000000000e+00 0.0000000000e+00 0.0000000000e+00)) ((-1.5078899518e+00 2.4655497470e-01 9.9183214347e+00) (1.2949072906e-03 8.1831465552e-03 -5.6970037221e-02) (0.0000000000e+00 0.0000000000e+00 0.0000000000e+00))
1.4470458442e-01	((4.9315388394e+00 3.0163012765e+01 1.4854254780e-18) (1.6368473635e-01 -2.5904797407e-02 -3.4750046225e-21) (0.0000000000e+00 0.0000000000e+00 0.0000000000e+00)) ((-1.5081506382e+00 2.4657694197e-01 9.9199930205e+00) (1.2952398703e-03 8.1842368177e-03 -5.6978716777e-02) (0.0000000000e+00 0.0000000000e+00 0.0000000000e+00))
1.4672119331e-01	((4.9320302885e+00 3.0168287393e+01 1.4857147232e-18) (1.6370615818e-01 -2.5911211291e-02 -3.4758877901e-21) (0.0000000000e+00 0.0000000000e+00 0.0000000000e+00)) ((-1.5084143696e+00 2.4660151442e-01 9.9217110349e+00) (1.2955605645e-03 8.1853079092e-03 -5.6987180913e-02) (0.0000000000e+00 0.0000000000e+00 0.0000000000e+00))
1.4873780219e-01	((4.9324525929e+00 3.0173451645e+01 1.4860022910e-18) (1.6372725489e-01 -2.5917478466e-02 -3.4767514518e-21) (0.0000000000e+00 0.0000000000e+00 0.0000000000e+00)) ((-1.5086725822e+00 2.4662262964e-01 9.9233616484e+00) (1.2958739233e-03 8.1863627446e-03 -5.6995499732e-02) (0.0000000000e+00 0.0000000000e+00 0.0000000000e+00))
1.5075441107e-01	((4.9328493128e+00 3.0178459441e+01 1.4862832564e-18) (1.6374798516e-01 -2.5923600663e-02 -3.4776049477e-21) (0.0000000000e+00 0.0000000000e+00 0.0000000000e+00)) ((-1.5089229720e+00 2.4664246564e-01 9.9249650006e+00) (1.2961800331e-03 8.1873992578e-03 -5.7003670080e-02) (0.0000000000e+00 0.0000000000e+00 0.0000000000e+00))
1.5277021062e-01	((4.9331980667e+00 3.0183428104e+01 1.4865583367e-18) (1.6376842506e-01 -2.5929714328e-02 -3.4761405942e-21) (0.0000000000e+00 0.0000000000e+00 0.0000000000e+00)) ((-1.5091714052e+00 2.4665990334e-01 9.9265191916e+00) (1.2964857164e-03 8.1884212528e-03 -5.7011790881e-02) (0.0000000000e+00 0.0000000000e+00 0.0000000000e+00))
1.5478513337e-01	((4.9335206144e+00 3.0188319516e+01 1.4868390493e-18) (1.6378834231e-01 -2.5935565274e-02 -3.4769709129e-21) (0.0000000000e+00 0.0000000000e+00 0.0000000000e+00)) ((-1.5094159758e+00 2.4667603072e-01 9.9280431919e+00) (1.2967782637e-03 8.1894171153e-03 -5.7019667727e-02) (0.0000000000e+00 0.0000000000e+00 0.0000000000e+00))
1.5680005613e-01	((4.9338000079e+00 3.0193080358e+01 1.4871006074e-18) (1.6380784052e-01 -2.5941271273e-02 -3.4777791786e-21) (0.0000000000e+00 0.0000000000e+00 0.0000000000e+00)) ((-1.5096540179e+00 2.4669000040e-01 9.9295042690e+00) (1.2970635637e-03 8.1903920261e-03 -5.7027392025e-02) (0.0000000000e+00 0.0000000000e+00 0.0000000000e+00))
1.5881497888e-01	((4.9340911091e+00 3.0197824584e+01 1.4873598957e-18) (1.6382692576e-01 -2.5946835037e-02 -3.4785905325e-21) (0.0000000000e+00 0.0000000000e+00 0.0000000000e+00)) ((-1.5098912292e+00 2.4670455545e-01 9.9309678096e+00) (1.2973417518e-03 8.1913462882e-03 -5.7034968285e-02) (0.0000000000e+00 0.0000000000e+00 0.0000000000e+00))
1.6082990164e-01	((4.9343843867e+00 3.0202544370e+01 1.4876323258e-18) (1.6384560532e-01 -2.5952245382e-02 -3.4793999571e-21) (0.0000000000e+00 0.0000000000e+00 0.0000000000e+00)) ((-1.5101272185e+00 2.4671921934e-01 9.9324329048e+00) (1.2976122691e-03 8.1922802658e-03 -5.7042389916e-02) (0.0000000000e+00 0.0000000000e+00 0.0000000000e+00))
1.6284482439e-01	((4.9346125876e+00 3.0207142568e+01 1.4878847759e-18) (1.6386389381e-01 -2.5957482620e-02 -3.4801729720e-21) (0.0000000000e+00 0.0000000000e+00 0.0000000000e+00)) ((-1.5103571284e+00 2.4673062938e-01 9.9338236797e+00) (1.2978741310e-03 8.1931946903e-03 -5.7049644379e-02) (0.0000000000e+00 0.0000000000e+00 0.0000000000e+00))
1.6485810864e-01	((4.9348828606e+00 3.0211766271e+01 1.4881470445e-18) (1.6388193940e-01 -2.5962742940e-02 -3.4779344852e-21) (0.0000000000e+00 0.0000000000e+00 0.0000000000e+00)) ((-1.5105883136e+00 2.4674414303e-01 9.9352485009e+00) (1.2981371470e-03 8.1940969700e-03 -5.7056877943e-02) (0.0000000000e+00 0.0000000000e+00 0.0000000000e+00))
1.6687081719e-01	((4.9351070133e+00 3.0216307188e+01 1.4884017354e-18) (1.6389946627e-01 -2.5967638817e-02 -3.4786927957e-21) (0.0000000000e+00 0.0000000000e+00 0.0000000000e+00)) ((-1.5108153594e+00 2.4675535066e-01 9.9366258580e+00) (1.2983819408e-03 8.1949733134e-03 -5.7063804581e-02) (0.0000000000e+00 0.0000000000e+00 0.0000000000e+00))
1.6888352575e-01	((4.9353373311e+00 3.0220771110e+01 1.4886611121e-18) (1.6391662128e-01 -2.5972348481e-02 -3.4794557218e-21) (0.0000000000e+00 0.0000000000e+00 0.0000000000e+00)) ((-1.5110385555e+00 2.4676686655e-01 9.9379911917e+00) (1.2986174240e-03 8.1958310641e-03 -5.7070562683e-02) (0.0000000000e+00 0.0000000000e+00 0.0000000000e+00))
1.7089623430e-01	((4.9355194216e+00 3.0225145478e+01 1.4888937948e-18) (1.6393340525e-01 -2.5976898294e-02 -3.4801838819e-21) (0.0000000000e+00 0.0000000000e+00 0.0000000000e+00)) ((-1.5112572739e+00 2.4677597108e-01 9.9392969352e+00) (1.2988449147e-03 8.1966702626e-03 -5.7077158148e-02) (0.0000000000e+00 0.0000000000e+00 0.0000000000e+00))
1.7290894286e-01	((4.9357293090e+00 3.0229585516e+01 1.4891418572e-18) (1.6394984132e-01 -2.5981273501e-02 -3.4809125826e-21) (0.0000000000e+00 0.0000000000e+00 0.0000000000e+00)) ((-1.5114792758e+00 2.4678646545e-01 9.9406401063e+00) (1.2990636750e-03 8.1974920662e-03 -5.7083591734e-02) (0.0000000000e+00 0.0000000000e+00 0.0000000000e+00))
1.7492165141e-01	((4.9359182749e+00 3.0233935266e+01 1.4894002813e-18) (1.6396594132e-01 -2.5985466367e-02 -3.4816385884e-21) (0.0000000000e+00 0.0000000000e+00 0.0000000000e+00)) ((-1.5116967633e+00 2.4679591374e-01 9.9419525721e+00) (1.2992733183e-03 8.1982970662e-03 -5.7089863845e-02) (0.0000000000e+00 0.0000000000e+00 0.0000000000e+00))
1.7693435997e-01	((4.9360662210e+00 3.0238234196e+01 1.4896328844e-18) (1.6398170041e-01 -2.5989480257e-02 -3.4823333039e-21) (0.0000000000e+00 0.0000000000e+00 0.0000000000e+00)) ((-1.5119117098e+00 2.4680331105e-01 9.9432195245e+00) (1.2994740128e-03 8.1990850207e-03 -5.7095974741e-02) (0.0000000000e+00 0.0000000000e+00 0.0000000000e+00))
1.7894706852e-01	((4.9362191308e+00 3.0242534171e+01 1.4898755732e-18) (1.6399714338e-01 -2.5993332958e-02 -3.4830268555e-21) (0.0000000000e+00 0.0000000000e+00 0.0000000000e+00)) ((-1.5121267086e+00 2.4681095654e-01 9.9444941129e+00) (1.2996666479e-03 8.1998571692e-03 -5.7101937598e-02) (0.0000000000e+00 0.0000000000e+00 0.0000000000e+00))
1.8095730603e-01	((4.9363702351e+00 3.0246747116e+01 1.4901371829e-18) (1.6401251201e-01 -2.5997367341e-02 -3.4782776700e-21) (0.0000000000e+00 0.0000000000e+00 0.0000000000e+00)) ((-1.5123373558e+00 2.4681851175e-01 9.9457493909e+00) (1.2998683671e-03 8.2006256004e-03 -5.7108006112e-02) (0.0000000000e+00 0.0000000000e+00 0.0000000000e+00))
1.8296602902e-01	((4.9364785005e+00 3.0250927652e+01 1.4903643854e-18) (1.6402733344e-01 -2.6000925283e-02 -3.4789374216e-21) (0.0000000000e+00 0.0000000000e+00 0.0000000000e+00)) ((-1.5125463826e+00 2.4682392503e-01 9.9469625928e+00) (1.3000462641e-03 8.2013666720e-03 -5.7113690169e-02) (0.0000000000e+00 0.0000000000e+00 0.0000000000e+00))
1.8497475201e-01	((4.9365821079e+00 3.0255032894e+01 1.4906094129e-18) (1.6404187376e-01 -2.6004339255e-02 -3.4796149260e-21) (0.0000000000e+00 0.0000000000e+00 0.0000000000e+00)) ((-1.5127516447e+00 2.4682910539e-01 9.9481622588e+00) (1.3002169628e-03 8.2020936880e-03 -5.7119236946e-02) (0.0000000000e+00 0.0000000000e+00 0.0000000000e+00))
1.8698347501e-01	((4.9366614423e+00 3.0259094719e+01 1.4908281944e-18) (1.6405613014e-01 -2.6007626725e-02 -3.4802753719e-21) (0.0000000000e+00 0.0000000000e+00 0.0000000000e+00)) ((-1.5129547360e+00 2.4683307211e-01 9.9493275318e+00) (1.3003813363e-03 8.2028065070e-03 -5.7124658705e-02) (0.0000000000e+00 0.0000000000e+00 0.0000000000e+00))
1.8899219800e-01	((4.9367382883e+00 3.0263121768e+01 1.4910546779e-18) (1.6407013293e-01 -2.6010797105e-02 -3.4809366863e-21) (0.0000000000e+00 0.0000000000e+00 0.0000000000e+00)) ((-1.5131560884e+00 2.4683691441e-01 9.9504871163e+00) (1.3005398552e-03 8.2035066466e-03 -5.7129964640e-02) (0.0000000000e+00 0.0000000000e+00 0.0000000000e+00))
1.9100092099e-01	((4.9368133712e+00 3.0267059462e+01 1.4912880750e-18) (1.6408388108e-01 -2.6013860128e-02 -3.4816027796e-21) (0.0000000000e+00 0.0000000000e+00 0.0000000000e+00)) ((-1.5133529731e+00 2.4684066856e-01 9.9516259430e+00) (1.3006930064e-03 8.2041940542e-03 -5.7135161176e-02) (0.0000000000e+00 0.0000000000e+00 0.0000000000e+00))
1.9300964398e-01	((4.9368558900e+00 3.0270967146e+01 1.4914975720e-18) (1.6409738802e-01 -2.6016821494e-02 -3.4822409408e-21) (0.0000000000e+00 0.0000000000e+00 0.0000000000e+00)) ((-1.5135483573e+00 2.4684279450e-01 9.9527289503e+00) (1.3008410747e-03 8.2048694011e-03 -5.7140254365e-02) (0.0000000000e+00 0.0000000000e+00 0.0000000000e+00))
1.9501836698e-01	((4.9369139029e+00 3.0274863978e+01 1.4917142035e-18) (1.6411067834e-01 -2.6019687883e-02 -3.4828900352e-21) (0.0000000000e+00 0.0000000000e+00 0.0000000000e+00)) ((-1.5137431989e+00 2.4684569514e-01 9.9538423958e+00) (1.3009843941e-03 8.2055339170e-03 -5.7145251155e-02) (0.0000000000e+00 0.0000000000e+00 0.0000000000e+00))
1.9702708997e-01	((4.9369776148e+00 3.0278695019e+01 1.4919394008e-18) (1.6412376570e-01 -2.6022469320e-02 -3.4835446025e-21) (0.0000000000e+00 0.0000000000e+00 0.0000000000e+00)) ((-1.5139347509e+00 2.4684888074e-01 9.9549453599e+00) (1.3011234660e-03 8.2061882848e-03 -5.7150159288e-02) (0.0000000000e+00 0.0000000000e+00 0.0000000000e+00))
1.9903581296e-01	((4.9370077338e+00 3.0282454172e+01 1.4921358984e-18) (1.6413666011e-01 -2.6025181497e-02 -3.4841755060e-21) (0.0000000000e+00 0.0000000000e+00 0.0000000000e+00)) ((-1.5141227086e+00 2.4685038669e-01 9.9560012254e+00) (1.3012590748e-03 8.2068330054e-03 -5.7154988789e-02) (0.0000000000e+00 0.0000000000e+00 0.0000000000e+00))
