# Forces         
# CofR           : (0.0000000000e+00 0.0000000000e+00 0.0000000000e+00)
# Time           forces(pressure viscous porous) moment(pressure viscous porous)
8.6702860030e-04	((6.7822593916e+00 1.9478818915e+01 7.7274772533e-19) (3.7030669632e-01 -3.5752058830e-02 -4.2929495957e-22) (0.0000000000e+00 0.0000000000e+00 0.0000000000e+00)) ((-9.7394094575e-01 3.3911296958e-01 2.0394133607e+01) (1.7876029415e-03 1.8515334816e-02 8.7691020822e-03) (0.0000000000e+00 0.0000000000e+00 0.0000000000e+00))
1.7337116500e-03	((6.4830411226e+00 1.8235836779e+01 7.4090305448e-19) (3.0534676985e-01 -2.8884350064e-02 -3.7504071729e-22) (0.0000000000e+00 0.0000000000e+00 0.0000000000e+00)) ((-9.1179183893e-01 3.2415205613e-01 1.9334859074e+01) (1.4442175032e-03 1.5267338493e-02 8.6018171043e-03) (0.0000000000e+00 0.0000000000e+00 0.0000000000e+00))
2.5973985478e-03	((6.3258968998e+00 1.7442995305e+01 7.2075516658e-19) (2.7349551111e-01 -2.5450114189e-02 -3.5668357333e-22) (0.0000000000e+00 0.0000000000e+00 0.0000000000e+00)) ((-8.7214976526e-01 3.1629484499e-01 1.8690856310e+01) (1.2725057095e-03 1.3674775556e-02 8.8006247978e-03) (0.0000000000e+00 0.0000000000e+00 0.0000000000e+00))
3.4569390026e-03	((6.2196543907e+00 1.6848835140e+01 7.0536402991e-19) (2.5471014533e-01 -2.3324406109e-02 -3.3830830385e-22) (0.0000000000e+00 0.0000000000e+00 0.0000000000e+00)) ((-8.4244175701e-01 3.1098271953e-01 1.8221970156e+01) (1.1662203054e-03 1.2735507266e-02 9.0925540085e-03) (0.0000000000e+00 0.0000000000e+00 0.0000000000e+00))
4.3128226672e-03	((6.1391369699e+00 1.6391091369e+01 6.9267101005e-19) (2.4233578438e-01 -2.1834451143e-02 -3.2447941096e-22) (0.0000000000e+00 0.0000000000e+00 0.0000000000e+00)) ((-8.1955456846e-01 3.0695684850e-01 1.7857240538e+01) (1.0917225571e-03 1.2116789219e-02 9.4044124047e-03) (0.0000000000e+00 0.0000000000e+00 0.0000000000e+00))
5.1657736968e-03	((6.0718315607e+00 1.6018788697e+01 6.8162390179e-19) (2.3350737219e-01 -2.0703679316e-02 -3.1203547045e-22) (0.0000000000e+00 0.0000000000e+00 0.0000000000e+00)) ((-8.0093943486e-01 3.0359157803e-01 1.7551088452e+01) (1.0351839658e-03 1.1675368609e-02 9.7019729348e-03) (0.0000000000e+00 0.0000000000e+00 0.0000000000e+00))
6.0152826747e-03	((6.0120013147e+00 1.5702834961e+01 6.7178162728e-19) (2.2685321790e-01 -1.9807013299e-02 -3.0101747901e-22) (0.0000000000e+00 0.0000000000e+00 0.0000000000e+00)) ((-7.8514174806e-01 3.0060006574e-01 1.7281834961e+01) (9.9035066496e-04 1.1342660895e-02 9.9692758990e-03) (0.0000000000e+00 0.0000000000e+00 0.0000000000e+00))
6.8605158410e-03	((5.9563375697e+00 1.5430406819e+01 6.6263917034e-19) (2.2162816704e-01 -1.9081122099e-02 -2.9153216677e-22) (0.0000000000e+00 0.0000000000e+00 0.0000000000e+00)) ((-7.7152034097e-01 2.9781687849e-01 1.7036304828e+01) (9.5405610494e-04 1.1081408352e-02 1.0196924026e-02) (0.0000000000e+00 0.0000000000e+00 0.0000000000e+00))
7.7009894819e-03	((5.9044460733e+00 1.5195250635e+01 6.5416293666e-19) (2.1738988518e-01 -1.8483933501e-02 -2.8289515629e-22) (0.0000000000e+00 0.0000000000e+00 0.0000000000e+00)) ((-7.5976253176e-01 2.9522230366e-01 1.6809766550e+01) (9.2419667506e-04 1.0869494259e-02 1.0385386325e-02) (0.0000000000e+00 0.0000000000e+00 0.0000000000e+00))
8.5367175293e-03	((5.8555394938e+00 1.4988326107e+01 6.4615562484e-19) (2.1385855697e-01 -1.7985388342e-02 -2.7444418013e-22) (0.0000000000e+00 0.0000000000e+00 0.0000000000e+00)) ((-7.4941630537e-01 2.9277697469e-01 1.6596701514e+01) (8.9926941710e-04 1.0692927849e-02 1.0538008431e-02) (0.0000000000e+00 0.0000000000e+00 0.0000000000e+00))
9.3679523959e-03	((5.8088851638e+00 1.4806867684e+01 6.3856728313e-19) (2.1084966844e-01 -1.7566363446e-02 -2.6627506331e-22) (0.0000000000e+00 0.0000000000e+00 0.0000000000e+00)) ((-7.4034338420e-01 2.9044425819e-01 1.6396280441e+01) (8.7831817232e-04 1.0542483422e-02 1.0656785219e-02) (0.0000000000e+00 0.0000000000e+00 0.0000000000e+00))
1.0195015483e-02	((5.7633234622e+00 1.4644261162e+01 6.3136639736e-19) (2.0823827731e-01 -1.7212777357e-02 -2.5827027285e-22) (0.0000000000e+00 0.0000000000e+00 0.0000000000e+00)) ((-7.3221305810e-01 2.8816617311e-01 1.6204601633e+01) (8.6063886784e-04 1.0411913866e-02 1.0745289825e-02) (0.0000000000e+00 0.0000000000e+00 0.0000000000e+00))
1.1018221366e-02	((5.7190642665e+00 1.4500117006e+01 6.2454611570e-19) (2.0593448187e-01 -1.6913659491e-02 -2.5034255508e-22) (0.0000000000e+00 0.0000000000e+00 0.0000000000e+00)) ((-7.2500585032e-01 2.8595321332e-01 1.6024830765e+01) (8.4568297453e-04 1.0296724093e-02 1.0808022055e-02) (0.0000000000e+00 0.0000000000e+00 0.0000000000e+00))
1.1837884736e-02	((5.6755226963e+00 1.4370913307e+01 6.1814282439e-19) (2.0387178883e-01 -1.6659864426e-02 -2.4277207881e-22) (0.0000000000e+00 0.0000000000e+00 0.0000000000e+00)) ((-7.1854566534e-01 2.8377613482e-01 1.5853841380e+01) (8.3299322129e-04 1.0193589441e-02 1.0849272854e-02) (0.0000000000e+00 0.0000000000e+00 0.0000000000e+00))
1.2654381404e-02	((5.6329487168e+00 1.4256875858e+01 6.1214388682e-19) (2.0200228005e-01 -1.6444086096e-02 -2.3561944599e-22) (0.0000000000e+00 0.0000000000e+00 0.0000000000e+00)) ((-7.1284379290e-01 2.8164743584e-01 1.5694457226e+01) (8.2220430482e-04 1.0100114002e-02 1.0872913829e-02) (0.0000000000e+00 0.0000000000e+00 0.0000000000e+00))
1.3468140010e-02	((5.5912124754e+00 1.4155432523e+01 6.0657254047e-19) (2.0028979713e-01 -1.6259398408e-02 -2.2889950168e-22) (0.0000000000e+00 0.0000000000e+00 0.0000000000e+00)) ((-7.0777162617e-01 2.7956062377e-01 1.5545094376e+01) (8.1296992040e-04 1.0014489856e-02 1.0882310282e-02) (0.0000000000e+00 0.0000000000e+00 0.0000000000e+00))
1.4279618921e-02	((5.5502971348e+00 1.4066728550e+01 6.0145858173e-19) (1.9870785586e-01 -1.6101051283e-02 -2.2265717988e-22) (0.0000000000e+00 0.0000000000e+00 0.0000000000e+00)) ((-7.0333642748e-01 2.7751485674e-01 1.5407146502e+01) (8.0505256413e-04 9.9353927929e-03 1.0880505198e-02) (0.0000000000e+00 0.0000000000e+00 0.0000000000e+00))
1.5089323181e-02	((5.5104227982e+00 1.3989335697e+01 5.9662214129e-19) (1.9723610460e-01 -1.5962858488e-02 -2.1703304935e-22) (0.0000000000e+00 0.0000000000e+00 0.0000000000e+00)) ((-6.9946678487e-01 2.7552113991e-01 1.5280364901e+01) (7.9814292438e-04 9.8618052301e-03 1.0871082959e-02) (0.0000000000e+00 0.0000000000e+00 0.0000000000e+00))
1.5897748370e-02	((5.4718951193e+00 1.3922427455e+01 5.9207166087e-19) (1.9585833543e-01 -1.5841350558e-02 -2.1167004662e-22) (0.0000000000e+00 0.0000000000e+00 0.0000000000e+00)) ((-6.9612137275e-01 2.7359475596e-01 1.5165114344e+01) (7.9206752792e-04 9.7929167714e-03 1.0856125064e-02) (0.0000000000e+00 0.0000000000e+00 0.0000000000e+00))
1.6705341987e-02	((5.4346880572e+00 1.3864038447e+01 5.8780778248e-19) (1.9456322736e-01 -1.5733669769e-02 -2.0653511797e-22) (0.0000000000e+00 0.0000000000e+00 0.0000000000e+00)) ((-6.9320192233e-01 2.7173440286e-01 1.5059763046e+01) (7.8668348847e-04 9.7281613682e-03 1.0837014616e-02) (0.0000000000e+00 0.0000000000e+00 0.0000000000e+00))
1.7512507381e-02	((5.3984227237e+00 1.3812470259e+01 5.8381594715e-19) (1.9333889818e-01 -1.5637535183e-02 -2.0150393664e-22) (0.0000000000e+00 0.0000000000e+00 0.0000000000e+00)) ((-6.9062351293e-01 2.6992113618e-01 1.4962590927e+01) (7.8187675916e-04 9.6669449092e-03 1.0815546934e-02) (0.0000000000e+00 0.0000000000e+00 0.0000000000e+00))
1.8319534311e-02	((5.3632020278e+00 1.3768032549e+01 5.8003757415e-19) (1.9217389805e-01 -1.5549987637e-02 -1.9664631964e-22) (0.0000000000e+00 0.0000000000e+00 0.0000000000e+00)) ((-6.8840162745e-01 2.6816010139e-01 1.4874356562e+01) (7.7749938187e-04 9.6086949024e-03 1.0793029375e-02) (0.0000000000e+00 0.0000000000e+00 0.0000000000e+00))
1.9126720931e-02	((5.3288128045e+00 1.3729543112e+01 5.7631408653e-19) (1.9106026800e-01 -1.5466919532e-02 -1.9197855296e-22) (0.0000000000e+00 0.0000000000e+00 0.0000000000e+00)) ((-6.8647715562e-01 2.6644064023e-01 1.4793312094e+01) (7.7334597658e-04 9.5530133998e-03 1.0770649162e-02) (0.0000000000e+00 0.0000000000e+00 0.0000000000e+00))
1.9934259330e-02	((5.2954623815e+00 1.3694391209e+01 5.7268809575e-19) (1.8999193389e-01 -1.5388575099e-02 -1.8759424699e-22) (0.0000000000e+00 0.0000000000e+00 0.0000000000e+00)) ((-6.8471956045e-01 2.6477311908e-01 1.4717370240e+01) (7.6942875495e-04 9.4995966945e-03 1.0748992148e-02) (0.0000000000e+00 0.0000000000e+00 0.0000000000e+00))
2.0742296728e-02	((5.2630061088e+00 1.3661282108e+01 5.6912814529e-19) (1.8896355932e-01 -1.5313245965e-02 -1.8351496329e-22) (0.0000000000e+00 0.0000000000e+00 0.0000000000e+00)) ((-6.8306410541e-01 2.6315030544e-01 1.4644143490e+01) (7.6566229827e-04 9.4481779659e-03 1.0728279619e-02) (0.0000000000e+00 0.0000000000e+00 0.0000000000e+00))
2.1550983973e-02	((5.2314434624e+00 1.3630341384e+01 5.6563516461e-19) (1.8797181015e-01 -1.5239946465e-02 -1.7969250892e-22) (0.0000000000e+00 0.0000000000e+00 0.0000000000e+00)) ((-6.8151706922e-01 2.6157217312e-01 1.4574314899e+01) (7.6199732325e-04 9.3985905077e-03 1.0708480157e-02) (0.0000000000e+00 0.0000000000e+00 0.0000000000e+00))
2.2360398973e-02	((5.2006545760e+00 1.3603017338e+01 5.6223342527e-19) (1.8701179455e-01 -1.5166103578e-02 -1.7610601052e-22) (0.0000000000e+00 0.0000000000e+00 0.0000000000e+00)) ((-6.8015086690e-01 2.6003272880e-01 1.4509041042e+01) (7.5830517892e-04 9.3505897276e-03 1.0689936130e-02) (0.0000000000e+00 0.0000000000e+00 0.0000000000e+00))
2.3170604717e-02	((5.1710179362e+00 1.3578386887e+01 5.5907012529e-19) (1.8607850434e-01 -1.5090597505e-02 -1.7289059828e-22) (0.0000000000e+00 0.0000000000e+00 0.0000000000e+00)) ((-6.7891934437e-01 2.5855089681e-01 1.4448165047e+01) (7.5452987524e-04 9.3039252170e-03 1.0672956061e-02) (0.0000000000e+00 0.0000000000e+00 0.0000000000e+00))
2.3981645324e-02	((5.1423351665e+00 1.3556707838e+01 5.5602863477e-19) (1.8516501345e-01 -1.5011447761e-02 -1.6983138154e-22) (0.0000000000e+00 0.0000000000e+00 0.0000000000e+00)) ((-6.7783539188e-01 2.5711675832e-01 1.4391635179e+01) (7.5057238804e-04 9.2582506723e-03 1.0657557497e-02) (0.0000000000e+00 0.0000000000e+00 0.0000000000e+00))
2.4793572996e-02	((5.1145143506e+00 1.3538193589e+01 5.5308360106e-19) (1.8427101845e-01 -1.4930093752e-02 -1.6745968472e-22) (0.0000000000e+00 0.0000000000e+00 0.0000000000e+00)) ((-6.7690967943e-01 2.5572571753e-01 1.4339241526e+01) (7.4650468762e-04 9.2135509227e-03 1.0643628831e-02) (0.0000000000e+00 0.0000000000e+00 0.0000000000e+00))
2.5606399255e-02	((5.0876412174e+00 1.3521854635e+01 5.5025578946e-19) (1.8339574115e-01 -1.4846458391e-02 -1.6593201700e-22) (0.0000000000e+00 0.0000000000e+00 0.0000000000e+00)) ((-6.7609273176e-01 2.5438206087e-01 1.4290091562e+01) (7.4232291957e-04 9.1697870576e-03 1.0630947647e-02) (0.0000000000e+00 0.0000000000e+00 0.0000000000e+00))
2.6420143021e-02	((5.0615735968e+00 1.3507903642e+01 5.4754342815e-19) (1.8253759965e-01 -1.4759637886e-02 -1.6502516756e-22) (0.0000000000e+00 0.0000000000e+00 0.0000000000e+00)) ((-6.7539518208e-01 2.5307867984e-01 1.4244110040e+01) (7.3798189432e-04 9.1268799827e-03 1.0619260860e-02) (0.0000000000e+00 0.0000000000e+00 0.0000000000e+00))
2.7234802115e-02	((5.0362606767e+00 1.3496198398e+01 5.4488184240e-19) (1.8169565787e-01 -1.4667921386e-02 -1.6465605788e-22) (0.0000000000e+00 0.0000000000e+00 0.0000000000e+00)) ((-6.7480991992e-01 2.5181303384e-01 1.4201119711e+01) (7.3339606931e-04 9.0847828934e-03 1.0608522215e-02) (0.0000000000e+00 0.0000000000e+00 0.0000000000e+00))
2.8050363323e-02	((5.0117487157e+00 1.3487085357e+01 5.4235685164e-19) (1.8086849481e-01 -1.4570519225e-02 -1.6452645669e-22) (0.0000000000e+00 0.0000000000e+00 0.0000000000e+00)) ((-6.7435426785e-01 2.5058743578e-01 1.4161532896e+01) (7.2852596124e-04 9.0434247403e-03 1.0598654114e-02) (0.0000000000e+00 0.0000000000e+00 0.0000000000e+00))
2.8866801853e-02	((4.9877784755e+00 1.3480047444e+01 5.3986005758e-19) (1.8005636164e-01 -1.4466744219e-02 -1.6472214700e-22) (0.0000000000e+00 0.0000000000e+00 0.0000000000e+00)) ((-6.7400237222e-01 2.4938892377e-01 1.4124428590e+01) (7.2333721095e-04 9.0028180819e-03 1.0589557206e-02) (0.0000000000e+00 0.0000000000e+00 0.0000000000e+00))
2.9684088333e-02	((4.9643938474e+00 1.3473186711e+01 5.3732548743e-19) (1.7925713834e-01 -1.4360997146e-02 -1.6518666456e-22) (0.0000000000e+00 0.0000000000e+00 0.0000000000e+00)) ((-6.7365933555e-01 2.4821969237e-01 1.4089008938e+01) (7.1804985732e-04 8.9628569172e-03 1.0581162485e-02) (0.0000000000e+00 0.0000000000e+00 0.0000000000e+00))
3.0502192420e-02	((4.9417980367e+00 1.3470262675e+01 5.3494906559e-19) (1.7846870240e-01 -1.4252429341e-02 -1.6571348050e-22) (0.0000000000e+00 0.0000000000e+00 0.0000000000e+00)) ((-6.7351313373e-01 2.4708990184e-01 1.4057200117e+01) (7.1262146704e-04 8.9234351202e-03 1.0573612904e-02) (0.0000000000e+00 0.0000000000e+00 0.0000000000e+00))
3.1321075285e-02	((4.9199297159e+00 1.3469403911e+01 5.3264856064e-19) (1.7769028243e-01 -1.4141423210e-02 -1.6581570057e-22) (0.0000000000e+00 0.0000000000e+00 0.0000000000e+00)) ((-6.7347019554e-01 2.4599648579e-01 1.4027903153e+01) (7.0707116049e-04 8.8845141215e-03 1.0566856046e-02) (0.0000000000e+00 0.0000000000e+00 0.0000000000e+00))
3.2140693012e-02	((4.8988591941e+00 1.3470587923e+01 5.3043978864e-19) (1.7692097070e-01 -1.4028229328e-02 -1.6578335152e-22) (0.0000000000e+00 0.0000000000e+00 0.0000000000e+00)) ((-6.7352939615e-01 2.4494295970e-01 1.4001218051e+01) (7.0141146640e-04 8.8460485348e-03 1.0560967328e-02) (0.0000000000e+00 0.0000000000e+00 0.0000000000e+00))
3.2960988349e-02	((4.8783674819e+00 1.3473078848e+01 5.2829791178e-19) (1.7616069176e-01 -1.3912247560e-02 -1.6524522140e-22) (0.0000000000e+00 0.0000000000e+00 0.0000000000e+00)) ((-6.7365394240e-01 2.4391837409e-01 1.3976195138e+01) (6.9561237799e-04 8.8080345881e-03 1.0556219945e-02) (0.0000000000e+00 0.0000000000e+00 0.0000000000e+00))
3.3781926381e-02	((4.8582617242e+00 1.3477527460e+01 5.2621340366e-19) (1.7540991664e-01 -1.3793301152e-02 -1.6434381842e-22) (0.0000000000e+00 0.0000000000e+00 0.0000000000e+00)) ((-6.7387637298e-01 2.4291308621e-01 1.3953017754e+01) (6.8966505759e-04 8.7704958321e-03 1.0552629895e-02) (0.0000000000e+00 0.0000000000e+00 0.0000000000e+00))
3.4603471369e-02	((4.8386415733e+00 1.3482937892e+01 5.2421696654e-19) (1.7466889365e-01 -1.3672255357e-02 -1.6320419289e-22) (0.0000000000e+00 0.0000000000e+00 0.0000000000e+00)) ((-6.7414689460e-01 2.4193207866e-01 1.3931220713e+01) (6.8361276783e-04 8.7334446827e-03 1.0550157206e-02) (0.0000000000e+00 0.0000000000e+00 0.0000000000e+00))
3.5425578215e-02	((4.8194366165e+00 1.3489487422e+01 5.2232451765e-19) (1.7393890485e-01 -1.3549187734e-02 -1.6178870180e-22) (0.0000000000e+00 0.0000000000e+00 0.0000000000e+00)) ((-6.7447437112e-01 2.4097183083e-01 1.3910809723e+01) (6.7745938671e-04 8.6969452427e-03 1.0548745939e-02) (0.0000000000e+00 0.0000000000e+00 0.0000000000e+00))
3.6248204396e-02	((4.8005927478e+00 1.3496739189e+01 5.2048145601e-19) (1.7322189236e-01 -1.3425188557e-02 -1.6016345550e-22) (0.0000000000e+00 0.0000000000e+00 0.0000000000e+00)) ((-6.7483695945e-01 2.4002963739e-01 1.3891449649e+01) (6.7125942786e-04 8.6610946181e-03 1.0548264225e-02) (0.0000000000e+00 0.0000000000e+00 0.0000000000e+00))
3.7071306209e-02	((4.7821068358e+00 1.3504431855e+01 5.1875705521e-19) (1.7251884808e-01 -1.3300081068e-02 -1.5831576158e-22) (0.0000000000e+00 0.0000000000e+00 0.0000000000e+00)) ((-6.7522159277e-01 2.3910534179e-01 1.3872895094e+01) (6.6500405338e-04 8.6259424039e-03 1.0548818036e-02) (0.0000000000e+00 0.0000000000e+00 0.0000000000e+00))
3.7894868885e-02	((4.7637962425e+00 1.3512613228e+01 5.1707801576e-19) (1.7183057767e-01 -1.3174051436e-02 -1.5622979407e-22) (0.0000000000e+00 0.0000000000e+00 0.0000000000e+00)) ((-6.7563066142e-01 2.3818981213e-01 1.3854949106e+01) (6.5870257181e-04 8.5915288837e-03 1.0550310753e-02) (0.0000000000e+00 0.0000000000e+00 0.0000000000e+00))
3.8718859897e-02	((4.7456941335e+00 1.3520959008e+01 5.1546584937e-19) (1.7115662593e-01 -1.3047337756e-02 -1.5395836423e-22) (0.0000000000e+00 0.0000000000e+00 0.0000000000e+00)) ((-6.7604795038e-01 2.3728470668e-01 1.3837460795e+01) (6.5236688781e-04 8.5578312964e-03 1.0552775939e-02) (0.0000000000e+00 0.0000000000e+00 0.0000000000e+00))
3.9543245662e-02	((4.7277368768e+00 1.3529216985e+01 5.1391960713e-19) (1.7049653579e-01 -1.2920189310e-02 -1.5148306166e-22) (0.0000000000e+00 0.0000000000e+00 0.0000000000e+00)) ((-6.7646084923e-01 2.3638684384e-01 1.3820145584e+01) (6.4600946550e-04 8.5248267897e-03 1.0556186544e-02) (0.0000000000e+00 0.0000000000e+00 0.0000000000e+00))
4.0368000289e-02	((4.7100350321e+00 1.3537101913e+01 5.1246276537e-19) (1.6984958605e-01 -1.2793156578e-02 -1.4889476105e-22) (0.0000000000e+00 0.0000000000e+00 0.0000000000e+00)) ((-6.7685509566e-01 2.3550175161e-01 1.3802989855e+01) (6.3965782890e-04 8.4924793024e-03 1.0560417291e-02) (0.0000000000e+00 0.0000000000e+00 0.0000000000e+00))
4.1193124521e-02	((4.6923942976e+00 1.3545157756e+01 5.1107302679e-19) (1.6921504157e-01 -1.2666924301e-02 -1.4626707154e-22) (0.0000000000e+00 0.0000000000e+00 0.0000000000e+00)) ((-6.7725788780e-01 2.3461971488e-01 1.3786111475e+01) (6.3334621506e-04 8.4607520787e-03 1.0565172447e-02) (0.0000000000e+00 0.0000000000e+00 0.0000000000e+00))
4.2018591662e-02	((4.6747943597e+00 1.3552694461e+01 5.0973400132e-19) (1.6859250331e-01 -1.2541745042e-02 -1.4362001186e-22) (0.0000000000e+00 0.0000000000e+00 0.0000000000e+00)) ((-6.7763472306e-01 2.3373971798e-01 1.3769027099e+01) (6.2708725209e-04 8.4296251656e-03 1.0570304747e-02) (0.0000000000e+00 0.0000000000e+00 0.0000000000e+00))
4.2844406744e-02	((4.6574115814e+00 1.3559729002e+01 5.0843811694e-19) (1.6798157198e-01 -1.2417645175e-02 -1.4094080862e-22) (0.0000000000e+00 0.0000000000e+00 0.0000000000e+00)) ((-6.7798645012e-01 2.3287057907e-01 1.3752060447e+01) (6.2088225875e-04 8.3990785990e-03 1.0575688237e-02) (0.0000000000e+00 0.0000000000e+00 0.0000000000e+00))
4.3670527246e-02	((4.6401162122e+00 1.3566672734e+01 5.0719627137e-19) (1.6738274937e-01 -1.2295213548e-02 -1.3833078216e-22) (0.0000000000e+00 0.0000000000e+00 0.0000000000e+00)) ((-6.7833363671e-01 2.3200581061e-01 1.3735025970e+01) (6.1476067741e-04 8.3691374687e-03 1.0581097459e-02) (0.0000000000e+00 0.0000000000e+00 0.0000000000e+00))
4.4497006508e-02	((4.6229100517e+00 1.3572657022e+01 5.0596822636e-19) (1.6679572558e-01 -1.2174687212e-02 -1.3580191320e-22) (0.0000000000e+00 0.0000000000e+00 0.0000000000e+00)) ((-6.7863285108e-01 2.3114550258e-01 1.3717478193e+01) (6.0873436060e-04 8.3397862792e-03 1.0586434545e-02) (0.0000000000e+00 0.0000000000e+00 0.0000000000e+00))
4.5323796244e-02	((4.6058095301e+00 1.3578238322e+01 5.0476139435e-19) (1.6622031574e-01 -1.2056154077e-02 -1.3330784587e-22) (0.0000000000e+00 0.0000000000e+00 0.0000000000e+00)) ((-6.7891191608e-01 2.3029047650e-01 1.3699704302e+01) (6.0280770385e-04 8.3110157869e-03 1.0591361155e-02) (0.0000000000e+00 0.0000000000e+00 0.0000000000e+00))
4.6150896017e-02	((4.5888730291e+00 1.3582686046e+01 5.0354288650e-19) (1.6565671383e-01 -1.1940163818e-02 -1.3097545911e-22) (0.0000000000e+00 0.0000000000e+00 0.0000000000e+00)) ((-6.7913430231e-01 2.2944365146e-01 1.3681253174e+01) (5.9700819088e-04 8.2828356915e-03 1.0595612926e-02) (0.0000000000e+00 0.0000000000e+00 0.0000000000e+00))
4.6978346577e-02	((4.5721222504e+00 1.3586391867e+01 5.0234430927e-19) (1.6510446881e-01 -1.1826999406e-02 -1.2878745142e-22) (0.0000000000e+00 0.0000000000e+00 0.0000000000e+00)) ((-6.7931959335e-01 2.2860611252e-01 1.3662454047e+01) (5.9134997032e-04 8.2552234407e-03 1.0598914418e-02) (0.0000000000e+00 0.0000000000e+00 0.0000000000e+00))
4.7806133142e-02	((4.5554991940e+00 1.3589201105e+01 5.0114535709e-19) (1.6456325371e-01 -1.1716157956e-02 -1.2678097336e-22) (0.0000000000e+00 0.0000000000e+00 0.0000000000e+00)) ((-6.7946005523e-01 2.2777495970e-01 1.3643045546e+01) (5.8580789779e-04 8.2281626857e-03 1.0601765632e-02) (0.0000000000e+00 0.0000000000e+00 0.0000000000e+00))
4.8634240199e-02	((4.5389975729e+00 1.3591093147e+01 4.9995711863e-19) (1.6403266492e-01 -1.1608262927e-02 -1.2496793420e-22) (0.0000000000e+00 0.0000000000e+00 0.0000000000e+00)) ((-6.7955465735e-01 2.2694987865e-01 1.3623004228e+01) (5.8041314635e-04 8.2016332460e-03 1.0603532151e-02) (0.0000000000e+00 0.0000000000e+00 0.0000000000e+00))
4.9462699739e-02	((4.5226285634e+00 1.3591914741e+01 4.9876454595e-19) (1.6351268277e-01 -1.1503443640e-02 -1.2336166556e-22) (0.0000000000e+00 0.0000000000e+00 0.0000000000e+00)) ((-6.7959573704e-01 2.2613142817e-01 1.3602277030e+01) (5.7517218201e-04 8.1756341383e-03 1.0604140715e-02) (0.0000000000e+00 0.0000000000e+00 0.0000000000e+00))
5.0291539783e-02	((4.5063740348e+00 1.3591837660e+01 4.9759146373e-19) (1.6300352540e-01 -1.1401436505e-02 -1.2187577644e-22) (0.0000000000e+00 0.0000000000e+00 0.0000000000e+00)) ((-6.7959188299e-01 2.2531870174e-01 1.3580957895e+01) (5.7007182524e-04 8.1501762698e-03 1.0603631882e-02) (0.0000000000e+00 0.0000000000e+00 0.0000000000e+00))
5.1120722857e-02	((4.4902916067e+00 1.3590709394e+01 4.9641530664e-19) (1.6250477516e-01 -1.1302358265e-02 -1.2057698066e-22) (0.0000000000e+00 0.0000000000e+00 0.0000000000e+00)) ((-6.7953546972e-01 2.2451458033e-01 1.3558961486e+01) (5.6511791324e-04 8.1252387581e-03 1.0601849794e-02) (0.0000000000e+00 0.0000000000e+00 0.0000000000e+00))
5.1950282975e-02	((4.4742916040e+00 1.3588739521e+01 4.9526080981e-19) (1.6201573571e-01 -1.1206206332e-02 -1.1944376376e-22) (0.0000000000e+00 0.0000000000e+00 0.0000000000e+00)) ((-6.7943697603e-01 2.2371458020e-01 1.3536401186e+01) (5.6031031658e-04 8.1007867856e-03 1.0598800604e-02) (0.0000000000e+00 0.0000000000e+00 0.0000000000e+00))
5.2780250043e-02	((4.4584628088e+00 1.3585623645e+01 4.9411410328e-19) (1.6153622871e-01 -1.1113027205e-02 -1.1839269671e-22) (0.0000000000e+00 0.0000000000e+00 0.0000000000e+00)) ((-6.7928118224e-01 2.2292314044e-01 1.3513138181e+01) (5.5565136025e-04 8.0768114353e-03 1.0594429491e-02) (0.0000000000e+00 0.0000000000e+00 0.0000000000e+00))
5.3610590866e-02	((4.4427934174e+00 1.3581920976e+01 4.9299365395e-19) (1.6106603466e-01 -1.1022681736e-02 -1.1738209082e-22) (0.0000000000e+00 0.0000000000e+00 0.0000000000e+00)) ((-6.7909604880e-01 2.2213967087e-01 1.3489654645e+01) (5.5113408681e-04 8.0533017332e-03 1.0588721893e-02) (0.0000000000e+00 0.0000000000e+00 0.0000000000e+00))
5.4441342052e-02	((4.4272352422e+00 1.3577171146e+01 4.9189487492e-19) (1.6060479257e-01 -1.0935085992e-02 -1.1649355407e-22) (0.0000000000e+00 0.0000000000e+00 0.0000000000e+00)) ((-6.7885855732e-01 2.2136176211e-01 1.3465429658e+01) (5.4675429962e-04 8.0302396285e-03 1.0581697150e-02) (0.0000000000e+00 0.0000000000e+00 0.0000000000e+00))
5.5272517693e-02	((4.4118673845e+00 1.3571690814e+01 4.9081529436e-19) (1.6015252749e-01 -1.0850743998e-02 -1.1564924831e-22) (0.0000000000e+00 0.0000000000e+00 0.0000000000e+00)) ((-6.7858454068e-01 2.2059336923e-01 1.3440927464e+01) (5.4253719988e-04 8.0076263744e-03 1.0572948073e-02) (0.0000000000e+00 0.0000000000e+00 0.0000000000e+00))
5.6104088887e-02	((4.3966304251e+00 1.3565565179e+01 4.8975904649e-19) (1.5970866148e-01 -1.0769134293e-02 -1.1483088601e-22) (0.0000000000e+00 0.0000000000e+00 0.0000000000e+00)) ((-6.7827825895e-01 2.1983152126e-01 1.3416113480e+01) (5.3845671466e-04 7.9854330739e-03 1.0562984899e-02) (0.0000000000e+00 0.0000000000e+00 0.0000000000e+00))
5.6936126632e-02	((4.3815611080e+00 1.3558654998e+01 4.8871535276e-19) (1.5927239221e-01 -1.0690196109e-02 -1.1406128051e-22) (0.0000000000e+00 0.0000000000e+00 0.0000000000e+00)) ((-6.7793274992e-01 2.1907805540e-01 1.3390933638e+01) (5.3450980544e-04 7.9636196107e-03 1.0551702556e-02) (0.0000000000e+00 0.0000000000e+00 0.0000000000e+00))
5.7768595666e-02	((4.3666459862e+00 1.3551059530e+01 4.8770908186e-19) (1.5884346341e-01 -1.0613822911e-02 -1.1333923643e-22) (0.0000000000e+00 0.0000000000e+00 0.0000000000e+00)) ((-6.7755297652e-01 2.1833229931e-01 1.3365403950e+01) (5.3069114555e-04 7.9421731704e-03 1.0539053049e-02) (0.0000000000e+00 0.0000000000e+00 0.0000000000e+00))
5.8601497981e-02	((4.3518995762e+00 1.3542778730e+01 4.8669733992e-19) (1.5842157080e-01 -1.0539520044e-02 -1.1260290939e-22) (0.0000000000e+00 0.0000000000e+00 0.0000000000e+00)) ((-6.7713893652e-01 2.1759497881e-01 1.3339626893e+01) (5.2697600221e-04 7.9210785399e-03 1.0525477100e-02) (0.0000000000e+00 0.0000000000e+00 0.0000000000e+00))
5.9434910046e-02	((4.3373143967e+00 1.3534053002e+01 4.8571282910e-19) (1.5800632794e-01 -1.0467519180e-02 -1.1188034309e-22) (0.0000000000e+00 0.0000000000e+00 0.0000000000e+00)) ((-6.7670265012e-01 2.1686571983e-01 1.3313744090e+01) (5.2337595900e-04 7.9003163968e-03 1.0510659634e-02) (0.0000000000e+00 0.0000000000e+00 0.0000000000e+00))
6.0268760864e-02	((4.3228953643e+00 1.3524883254e+01 4.8473972583e-19) (1.5759746342e-01 -1.0397591475e-02 -1.1117740626e-22) (0.0000000000e+00 0.0000000000e+00 0.0000000000e+00)) ((-6.7624416269e-01 2.1614476822e-01 1.3287778430e+01) (5.1987957377e-04 7.8798731710e-03 1.0494735322e-02) (0.0000000000e+00 0.0000000000e+00 0.0000000000e+00))
6.1103116043e-02	((4.3086189389e+00 1.3515171476e+01 4.8377327541e-19) (1.5719413567e-01 -1.0329729557e-02 -1.1051904816e-22) (0.0000000000e+00 0.0000000000e+00 0.0000000000e+00)) ((-6.7575857382e-01 2.1543094695e-01 1.3261643641e+01) (5.1648647783e-04 7.8597067837e-03 1.0477752705e-02) (0.0000000000e+00 0.0000000000e+00 0.0000000000e+00))
6.1937972735e-02	((4.2945130500e+00 1.3505045056e+01 4.8279376225e-19) (1.5679637460e-01 -1.0263905902e-02 -1.0979795322e-22) (0.0000000000e+00 0.0000000000e+00 0.0000000000e+00)) ((-6.7525225278e-01 2.1472565250e-01 1.3235445428e+01) (5.1319529509e-04 7.8398187300e-03 1.0459809177e-02) (0.0000000000e+00 0.0000000000e+00 0.0000000000e+00))
6.2773290874e-02	((4.2805734055e+00 1.3494514724e+01 4.8180815954e-19) (1.5640362328e-01 -1.0199694565e-02 -1.0913998491e-22) (0.0000000000e+00 0.0000000000e+00 0.0000000000e+00)) ((-6.7472573621e-01 2.1402867027e-01 1.3209176845e+01) (5.0998472825e-04 7.8201811639e-03 1.0440981823e-02) (0.0000000000e+00 0.0000000000e+00 0.0000000000e+00))
6.3609164246e-02	((4.2667483522e+00 1.3483597304e+01 4.8082744081e-19) (1.5601532721e-01 -1.0137142243e-02 -1.0853354301e-22) (0.0000000000e+00 0.0000000000e+00 0.0000000000e+00)) ((-6.7417986519e-01 2.1333741761e-01 1.3182816267e+01) (5.0685711213e-04 7.8007663607e-03 1.0421262118e-02) (0.0000000000e+00 0.0000000000e+00 0.0000000000e+00))
6.4445537500e-02	((4.2530956047e+00 1.3472393585e+01 4.7984261934e-19) (1.5563165249e-01 -1.0076236458e-02 -1.0790380848e-22) (0.0000000000e+00 0.0000000000e+00 0.0000000000e+00)) ((-6.7361967927e-01 2.1265478023e-01 1.3156500002e+01) (5.0381182288e-04 7.7815826244e-03 1.0400715417e-02) (0.0000000000e+00 0.0000000000e+00 0.0000000000e+00))
6.5282398555e-02	((4.2395640593e+00 1.3460829253e+01 4.7885464453e-19) (1.5525224040e-01 -1.0017005812e-02 -1.0726142559e-22) (0.0000000000e+00 0.0000000000e+00 0.0000000000e+00)) ((-6.7304146263e-01 2.1197820297e-01 1.3130096455e+01) (5.0085029060e-04 7.7626120199e-03 1.0379305591e-02) (0.0000000000e+00 0.0000000000e+00 0.0000000000e+00))
6.6119832811e-02	((4.2261696638e+00 1.3449040720e+01 4.7785620184e-19) (1.5487676875e-01 -9.9592865685e-03 -1.0669096619e-22) (0.0000000000e+00 0.0000000000e+00 0.0000000000e+00)) ((-6.7245203600e-01 2.1130848319e-01 1.3103782820e+01) (4.9796432843e-04 7.7438384375e-03 1.0357060674e-02) (0.0000000000e+00 0.0000000000e+00 0.0000000000e+00))
6.6957789633e-02	((4.2129023079e+00 1.3436916031e+01 4.7685421306e-19) (1.5450537860e-01 -9.9027129723e-03 -1.0614156693e-22) (0.0000000000e+00 0.0000000000e+00 0.0000000000e+00)) ((-6.7184580155e-01 2.1064511540e-01 1.3077369872e+01) (4.9513564862e-04 7.7252689302e-03 1.0334436508e-02) (0.0000000000e+00 0.0000000000e+00 0.0000000000e+00))
6.7796256837e-02	((4.1997557638e+00 1.3424530940e+01 4.7584015555e-19) (1.5413787993e-01 -9.8471386708e-03 -1.0558168494e-22) (0.0000000000e+00 0.0000000000e+00 0.0000000000e+00)) ((-6.7122654702e-01 2.0998778819e-01 1.3051001497e+01) (4.9235693354e-04 7.7068939966e-03 1.0311556886e-02) (0.0000000000e+00 0.0000000000e+00 0.0000000000e+00))
6.8635247428e-02	((4.1867456222e+00 1.3412045741e+01 4.7482438695e-19) (1.5377390523e-01 -9.7927148070e-03 -1.0502892037e-22) (0.0000000000e+00 0.0000000000e+00 0.0000000000e+00)) ((-6.7060228705e-01 2.0933728111e-01 1.3024763366e+01) (4.8963574035e-04 7.6886952617e-03 1.0288177173e-02) (0.0000000000e+00 0.0000000000e+00 0.0000000000e+00))
6.9474812824e-02	((4.1738660555e+00 1.3399259392e+01 4.7380113218e-19) (1.5341311359e-01 -9.7394005675e-03 -1.0454126364e-22) (0.0000000000e+00 0.0000000000e+00 0.0000000000e+00)) ((-6.6996296961e-01 2.0869330278e-01 1.2998559505e+01) (4.8697002837e-04 7.6706556794e-03 1.0264254431e-02) (0.0000000000e+00 0.0000000000e+00 0.0000000000e+00))
7.0314924228e-02	((4.1611102188e+00 1.3386437979e+01 4.7277756318e-19) (1.5305577980e-01 -9.6870464378e-03 -1.0405091298e-22) (0.0000000000e+00 0.0000000000e+00 0.0000000000e+00)) ((-6.6932189897e-01 2.0805551094e-01 1.2972515625e+01) (4.8435232189e-04 7.6527889900e-03 1.0239918679e-02) (0.0000000000e+00 0.0000000000e+00 0.0000000000e+00))
7.1155569221e-02	((4.1484875049e+00 1.3373506193e+01 4.7174677142e-19) (1.5270172618e-01 -9.6356825264e-03 -1.0356814727e-22) (0.0000000000e+00 0.0000000000e+00 0.0000000000e+00)) ((-6.6867530963e-01 2.0742437524e-01 1.2946596904e+01) (4.8178412632e-04 7.6350863090e-03 1.0215218831e-02) (0.0000000000e+00 0.0000000000e+00 0.0000000000e+00))
7.1996744028e-02	((4.1359973747e+00 1.3360464209e+01 4.7071938228e-19) (1.5235074167e-01 -9.5852551208e-03 -1.0308785641e-22) (0.0000000000e+00 0.0000000000e+00 0.0000000000e+00)) ((-6.6802321047e-01 2.0679986873e-01 1.2920826770e+01) (4.7926275604e-04 7.6175370835e-03 1.0190123259e-02) (0.0000000000e+00 0.0000000000e+00 0.0000000000e+00))