# Forces         
# CofR           : (0.0000000000e+00 0.0000000000e+00 0.0000000000e+00)
# Time           forces(pressure viscous porous) moment(pressure viscous porous)
1.7171648952e-03	((6.6473772210e-01 2.0004718275e+00 5.6114784418e-19) (3.5274647151e-02 -3.1474754468e-03 1.9174487567e-22) (0.0000000000e+00 0.0000000000e+00 0.0000000000e+00)) ((-1.0002359138e-02 3.3236886105e-03 2.1013353184e+00) (1.5737377234e-05 1.7637323575e-04 1.3591061914e-03) (0.0000000000e+00 0.0000000000e+00 0.0000000000e+00))
3.6017542731e-03	((6.2119761059e-01 1.8119338244e+00 5.0853106682e-19) (2.9017626684e-02 -2.4292170332e-03 1.7572819029e-22) (0.0000000000e+00 0.0000000000e+00 0.0000000000e+00)) ((-9.0596691221e-03 3.1059880529e-03 1.9357499168e+00) (1.2146085166e-05 1.4508813342e-04 1.3559180245e-03) (0.0000000000e+00 0.0000000000e+00 0.0000000000e+00))
5.4762649227e-03	((5.9987350323e-01 1.7110467177e+00 4.6386870077e-19) (2.6209597923e-02 -2.0518433809e-03 2.6397185445e-22) (0.0000000000e+00 0.0000000000e+00 0.0000000000e+00)) ((-8.5552335884e-03 2.9993675162e-03 1.8482744839e+00) (1.0259216904e-05 1.3104798962e-04 1.4212636520e-03) (0.0000000000e+00 0.0000000000e+00 0.0000000000e+00))
7.3263292541e-03	((5.8433423919e-01 1.6428804226e+00 4.2557528098e-19) (2.4667490647e-02 -1.8092407296e-03 3.1814299067e-22) (0.0000000000e+00 0.0000000000e+00 0.0000000000e+00)) ((-8.2144021131e-03 2.9216711960e-03 1.7836873388e+00) (9.0462036478e-06 1.2333745324e-04 1.4883205308e-03) (0.0000000000e+00 0.0000000000e+00 0.0000000000e+00))
9.1617739070e-03	((5.7207224862e-01 1.5951995248e+00 3.8988449482e-19) (2.3692927420e-02 -1.6494849712e-03 3.5749873021e-22) (0.0000000000e+00 0.0000000000e+00 0.0000000000e+00)) ((-7.9759976242e-03 2.8603612431e-03 1.7328784943e+00) (8.2474248561e-06 1.1846463710e-04 1.5333935075e-03) (0.0000000000e+00 0.0000000000e+00 0.0000000000e+00))
1.0991793483e-02	((5.6156086538e-01 1.5614325807e+00 3.5683195426e-19) (2.3012048548e-02 -1.5426770464e-03 3.9672798179e-22) (0.0000000000e+00 0.0000000000e+00 0.0000000000e+00)) ((-7.8071629037e-03 2.8078043269e-03 1.6921766877e+00) (7.7133852322e-06 1.1506024274e-04 1.5579167280e-03) (0.0000000000e+00 0.0000000000e+00 0.0000000000e+00))
1.2810292647e-02	((5.5222298404e-01 1.5374799231e+00 3.2644483443e-19) (2.2502466442e-02 -1.4703228536e-03 4.3162752085e-22) (0.0000000000e+00 0.0000000000e+00 0.0000000000e+00)) ((-7.6873996155e-03 2.7611149202e-03 1.6598631683e+00) (7.3516142681e-06 1.1251233221e-04 1.5681356368e-03) (0.0000000000e+00 0.0000000000e+00 0.0000000000e+00))
1.4614396205e-02	((5.4376888176e-01 1.5200112970e+00 2.9961824079e-19) (2.2098801688e-02 -1.4191386728e-03 4.5939487079e-22) (0.0000000000e+00 0.0000000000e+00 0.0000000000e+00)) ((-7.6000564849e-03 2.7188444088e-03 1.6340894886e+00) (7.0956933638e-06 1.1049400844e-04 1.5707200826e-03) (0.0000000000e+00 0.0000000000e+00 0.0000000000e+00))
1.6408837718e-02	((5.3605617747e-01 1.5066060898e+00 2.7502394461e-19) (2.1763254770e-02 -1.3798864481e-03 4.7672249894e-22) (0.0000000000e+00 0.0000000000e+00 0.0000000000e+00)) ((-7.5330304490e-03 2.6802808873e-03 1.6131103393e+00) (6.8994322403e-06 1.0881627385e-04 1.5704635033e-03) (0.0000000000e+00 0.0000000000e+00 0.0000000000e+00))
1.8198744409e-02	((5.2876002039e-01 1.4956738972e+00 2.5265184591e-19) (2.1472928380e-02 -1.3463943827e-03 4.8395922232e-22) (0.0000000000e+00 0.0000000000e+00 0.0000000000e+00)) ((-7.4783694861e-03 2.6438001020e-03 1.5952646582e+00) (6.7319719135e-06 1.0736464190e-04 1.5695610317e-03) (0.0000000000e+00 0.0000000000e+00 0.0000000000e+00))
1.9988193352e-02	((5.2171874573e-01 1.4854731373e+00 2.3165745939e-19) (2.1213401033e-02 -1.3159855011e-03 4.8716127695e-22) (0.0000000000e+00 0.0000000000e+00 0.0000000000e+00)) ((-7.4273656867e-03 2.6085937286e-03 1.5784889122e+00) (6.5799275055e-06 1.0606700517e-04 1.5681826912e-03) (0.0000000000e+00 0.0000000000e+00 0.0000000000e+00))
2.1780120176e-02	((5.1496896760e-01 1.4759375478e+00 2.1119439612e-19) (2.0975168748e-02 -1.2874434743e-03 4.9411526867e-22) (0.0000000000e+00 0.0000000000e+00 0.0000000000e+00)) ((-7.3796877392e-03 2.5748448380e-03 1.5627346377e+00) (6.4372173715e-06 1.0487584374e-04 1.5658793242e-03) (0.0000000000e+00 0.0000000000e+00 0.0000000000e+00))
2.3576216864e-02	((5.0851901787e-01 1.4676116963e+00 1.9073586684e-19) (2.0751998545e-02 -1.2599740734e-03 5.1091320295e-22) (0.0000000000e+00 0.0000000000e+00 0.0000000000e+00)) ((-7.3380584817e-03 2.5425950893e-03 1.5485069530e+00) (6.2998703669e-06 1.0375999273e-04 1.5623004459e-03) (0.0000000000e+00 0.0000000000e+00 0.0000000000e+00))
2.5377582979e-02	((5.0239604995e-01 1.4604655012e+00 1.7133480833e-19) (2.0539551040e-02 -1.2334082024e-03 5.3649713442e-22) (0.0000000000e+00 0.0000000000e+00 0.0000000000e+00)) ((-7.3023275058e-03 2.5119802497e-03 1.5357516064e+00) (6.1670410118e-06 1.0269775520e-04 1.5574153166e-03) (0.0000000000e+00 0.0000000000e+00 0.0000000000e+00))
2.7184638488e-02	((4.9661630446e-01 1.4544586185e+00 1.5312090488e-19) (2.0335553040e-02 -1.2075037177e-03 5.6487333996e-22) (0.0000000000e+00 0.0000000000e+00 0.0000000000e+00)) ((-7.2722930925e-03 2.4830815223e-03 1.5243400569e+00) (6.0375185883e-06 1.0167776520e-04 1.5514270970e-03) (0.0000000000e+00 0.0000000000e+00 0.0000000000e+00))
2.8997469937e-02	((4.9117495873e-01 1.4494140538e+00 1.3599375596e-19) (2.0138447621e-02 -1.1817866374e-03 5.9110122592e-22) (0.0000000000e+00 0.0000000000e+00 0.0000000000e+00)) ((-7.2470702691e-03 2.4558747936e-03 1.5141760036e+00) (5.9089331872e-06 1.0069223811e-04 1.5448222001e-03) (0.0000000000e+00 0.0000000000e+00 0.0000000000e+00))
3.0815815039e-02	((4.8605269492e-01 1.4453575448e+00 1.2084940899e-19) (1.9947741311e-02 -1.1561044243e-03 6.0932499618e-22) (0.0000000000e+00 0.0000000000e+00 0.0000000000e+00)) ((-7.2267877242e-03 2.4302634746e-03 1.5051222568e+00) (5.7805221216e-06 9.9738706554e-05 1.5382556800e-03) (0.0000000000e+00 0.0000000000e+00 0.0000000000e+00))
3.2639411377e-02	((4.8122954063e-01 1.4419128453e+00 1.0794613859e-19) (1.9762531536e-02 -1.1302960221e-03 6.1833122494e-22) (0.0000000000e+00 0.0000000000e+00 0.0000000000e+00)) ((-7.2095642263e-03 2.4061477032e-03 1.4967978498e+00) (5.6514801107e-06 9.8812657680e-05 1.5320790288e-03) (0.0000000000e+00 0.0000000000e+00 0.0000000000e+00))
3.4467837186e-02	((4.7665695122e-01 1.4390151887e+00 9.7404774671e-20) (1.9583122238e-02 -1.1044214074e-03 6.1830725213e-22) (0.0000000000e+00 0.0000000000e+00 0.0000000000e+00)) ((-7.1950759436e-03 2.3832847561e-03 1.4890578889e+00) (5.5221070372e-06 9.7915611190e-05 1.5265119219e-03) (0.0000000000e+00 0.0000000000e+00 0.0000000000e+00))
3.6300679829e-02	((4.7229907856e-01 1.4363637029e+00 8.8676239704e-20) (1.9410335577e-02 -1.0786414567e-03 6.1217826088e-22) (0.0000000000e+00 0.0000000000e+00 0.0000000000e+00)) ((-7.1818185145e-03 2.3614953928e-03 1.4816118659e+00) (5.3932072833e-06 9.7051677883e-05 1.5216921835e-03) (0.0000000000e+00 0.0000000000e+00 0.0000000000e+00))
3.8137749518e-02	((4.6810490469e-01 1.4338086394e+00 8.1449218799e-20) (1.9245024266e-02 -1.0532662339e-03 6.0303704144e-22) (0.0000000000e+00 0.0000000000e+00 0.0000000000e+00)) ((-7.1690431970e-03 2.3405245234e-03 1.4743001616e+00) (5.2663311695e-06 9.6225121331e-05 1.5174322069e-03) (0.0000000000e+00 0.0000000000e+00 0.0000000000e+00))
3.9978710688e-02	((4.6404048486e-01 1.4311703357e+00 7.5607174780e-20) (1.9087863091e-02 -1.0287914586e-03 5.9321972015e-22) (0.0000000000e+00 0.0000000000e+00 0.0000000000e+00)) ((-7.1558516783e-03 2.3202024243e-03 1.4669595920e+00) (5.1439572931e-06 9.5439315454e-05 1.5134330589e-03) (0.0000000000e+00 0.0000000000e+00 0.0000000000e+00))
4.1823518336e-02	((4.6009885638e-01 1.4282708540e+00 7.0858140440e-20) (1.8938767342e-02 -1.0055026319e-03 5.8449079993e-22) (0.0000000000e+00 0.0000000000e+00 0.0000000000e+00)) ((-7.1413542698e-03 2.3004942819e-03 1.4594487719e+00) (5.0275131594e-06 9.4693836711e-05 1.5093712760e-03) (0.0000000000e+00 0.0000000000e+00 0.0000000000e+00))
4.3671983969e-02	((4.5624054323e-01 1.4250472483e+00 6.6816000567e-20) (1.8797480752e-02 -9.8368845142e-04 5.7849731874e-22) (0.0000000000e+00 0.0000000000e+00 0.0000000000e+00)) ((-7.1252362415e-03 2.2812027162e-03 1.4516787370e+00) (4.9184422571e-06 9.3987403761e-05 1.5049635720e-03) (0.0000000000e+00 0.0000000000e+00 0.0000000000e+00))
4.5524072065e-02	((4.5248227920e-01 1.4214542487e+00 6.3635613422e-20) (1.8663061617e-02 -9.6341927961e-04 5.7440557646e-22) (0.0000000000e+00 0.0000000000e+00 0.0000000000e+00)) ((-7.1072712435e-03 2.2624113960e-03 1.4436654071e+00) (4.8170963980e-06 9.3315308086e-05 1.4999670265e-03) (0.0000000000e+00 0.0000000000e+00 0.0000000000e+00))
4.7379768012e-02	((4.4879269205e-01 1.4174599625e+00 6.1022101757e-20) (1.8534501397e-02 -9.4465561260e-04 5.7171798651e-22) (0.0000000000e+00 0.0000000000e+00 0.0000000000e+00)) ((-7.0872998127e-03 2.2439634602e-03 1.4353503625e+00) (4.7232780630e-06 9.2672506984e-05 1.4942822056e-03) (0.0000000000e+00 0.0000000000e+00 0.0000000000e+00))
4.9239161345e-02	((4.4516605499e-01 1.4131216174e+00 5.8783569537e-20) (1.8410957254e-02 -9.2728074304e-04 5.6920720814e-22) (0.0000000000e+00 0.0000000000e+00 0.0000000000e+00)) ((-7.0656080872e-03 2.2258302750e-03 1.4267983974e+00) (4.6364037152e-06 9.2054786271e-05 1.4878824287e-03) (0.0000000000e+00 0.0000000000e+00 0.0000000000e+00))
5.1102295911e-02	((4.4162335101e-01 1.4084429282e+00 5.7003993098e-20) (1.8291645631e-02 -9.1112158857e-04 5.6782878582e-22) (0.0000000000e+00 0.0000000000e+00 0.0000000000e+00)) ((-7.0422146410e-03 2.2081167551e-03 1.4180542727e+00) (4.5556079429e-06 9.1458228155e-05 1.4807576552e-03) (0.0000000000e+00 0.0000000000e+00 0.0000000000e+00))
5.2969014386e-02	((4.3814800565e-01 1.4035892706e+00 5.5254501372e-20) (1.8176152619e-02 -8.9604646531e-04 5.6584148978e-22) (0.0000000000e+00 0.0000000000e+00 0.0000000000e+00)) ((-7.0179463532e-03 2.1907400283e-03 1.4092592775e+00) (4.4802323266e-06 9.0880763096e-05 1.4729854412e-03) (0.0000000000e+00 0.0000000000e+00 0.0000000000e+00))
5.4839534287e-02	((4.3475902887e-01 1.3985413274e+00 5.3663948672e-20) (1.8064150466e-02 -8.8195651746e-04 5.6456537122e-22) (0.0000000000e+00 0.0000000000e+00 0.0000000000e+00)) ((-6.9927066372e-03 2.1737951443e-03 1.4004273169e+00) (4.4097825873e-06 9.0320752328e-05 1.4646646121e-03) (0.0000000000e+00 0.0000000000e+00 0.0000000000e+00))
5.6713657461e-02	((4.3147301306e-01 1.3934130780e+00 5.2140645811e-20) (1.7955572519e-02 -8.6876897499e-04 5.6354381243e-22) (0.0000000000e+00 0.0000000000e+00 0.0000000000e+00)) ((-6.9670653901e-03 2.1573650653e-03 1.3916698396e+00) (4.3438448750e-06 8.9777862597e-05 1.4559449891e-03) (0.0000000000e+00 0.0000000000e+00 0.0000000000e+00))
5.8591418139e-02	((4.2827602248e-01 1.3882989965e+00 5.0665830051e-20) (1.7850046449e-02 -8.5652175867e-04 5.6335885027e-22) (0.0000000000e+00 0.0000000000e+00 0.0000000000e+00)) ((-6.9414949826e-03 2.1413801124e-03 1.3830570247e+00) (4.2826087934e-06 8.9250232245e-05 1.4468666829e-03) (0.0000000000e+00 0.0000000000e+00 0.0000000000e+00))
6.0472861505e-02	((4.2518182461e-01 1.3831711106e+00 4.9188346862e-20) (1.7747185244e-02 -8.4499760537e-04 5.6484968883e-22) (0.0000000000e+00 0.0000000000e+00 0.0000000000e+00)) ((-6.9158555528e-03 2.1259091231e-03 1.3745862264e+00) (4.2249880268e-06 8.8735926221e-05 1.4375843756e-03) (0.0000000000e+00 0.0000000000e+00 0.0000000000e+00))
6.2357821358e-02	((4.2217178254e-01 1.3780584007e+00 4.7707808733e-20) (1.7646921748e-02 -8.3413117086e-04 5.6641779925e-22) (0.0000000000e+00 0.0000000000e+00 0.0000000000e+00)) ((-6.8902920036e-03 2.1108589127e-03 1.3662573471e+00) (4.1706558543e-06 8.8234608738e-05 1.4282048034e-03) (0.0000000000e+00 0.0000000000e+00 0.0000000000e+00))
6.4246303283e-02	((4.1922894617e-01 1.3729598326e+00 4.6099082097e-20) (1.7548900951e-02 -8.2382498629e-04 5.6963463549e-22) (0.0000000000e+00 0.0000000000e+00 0.0000000000e+00)) ((-6.8647991631e-03 2.0961447309e-03 1.3580558567e+00) (4.1191249314e-06 8.7744504755e-05 1.4187677964e-03) (0.0000000000e+00 0.0000000000e+00 0.0000000000e+00))
6.6138107615e-02	((4.1635497656e-01 1.3678788720e+00 4.4318156309e-20) (1.7452893813e-02 -8.1388912039e-04 5.7302060468e-22) (0.0000000000e+00 0.0000000000e+00 0.0000000000e+00)) ((-6.8393943601e-03 2.0817748828e-03 1.3499963251e+00) (4.0694456019e-06 8.7264469065e-05 1.4093610062e-03) (0.0000000000e+00 0.0000000000e+00 0.0000000000e+00))
6.8033167096e-02	((4.1353508836e-01 1.3628451835e+00 4.2357750762e-20) (1.7358936607e-02 -8.0421423264e-04 5.7601577326e-22) (0.0000000000e+00 0.0000000000e+00 0.0000000000e+00)) ((-6.8142259177e-03 2.0676754418e-03 1.3420622847e+00) (4.0210711632e-06 8.6794683034e-05 1.4000371059e-03) (0.0000000000e+00 0.0000000000e+00 0.0000000000e+00))
6.9931421880e-02	((4.1077494729e-01 1.3579253111e+00 4.0264493047e-20) (1.7266895460e-02 -7.9491578672e-04 5.8045625192e-22) (0.0000000000e+00 0.0000000000e+00 0.0000000000e+00)) ((-6.7896265555e-03 2.0538747365e-03 1.3343324963e+00) (3.9745789336e-06 8.6334477299e-05 1.3908731102e-03) (0.0000000000e+00 0.0000000000e+00 0.0000000000e+00))
7.1832895051e-02	((4.0807822241e-01 1.3531076270e+00 3.8036276381e-20) (1.7176639263e-02 -7.8591112154e-04 5.8453775546e-22) (0.0000000000e+00 0.0000000000e+00 0.0000000000e+00)) ((-6.7655381351e-03 2.0403911121e-03 1.3267817762e+00) (3.9295556077e-06 8.5883196317e-05 1.3818562345e-03) (0.0000000000e+00 0.0000000000e+00 0.0000000000e+00))
7.3737255596e-02	((4.0544142032e-01 1.3484352118e+00 3.5646399062e-20) (1.7088133390e-02 -7.7709557677e-04 5.8882032892e-22) (0.0000000000e+00 0.0000000000e+00 0.0000000000e+00)) ((-6.7421760592e-03 2.0272071016e-03 1.3194408846e+00) (3.8854778839e-06 8.5440666948e-05 1.3729960032e-03) (0.0000000000e+00 0.0000000000e+00 0.0000000000e+00))
7.5644497024e-02	((4.0286202533e-01 1.3439030898e+00 3.3089082657e-20) (1.7001335857e-02 -7.6838537440e-04 5.9318750400e-22) (0.0000000000e+00 0.0000000000e+00 0.0000000000e+00)) ((-6.7195154492e-03 2.0143101266e-03 1.3122950052e+00) (3.8419268720e-06 8.5006679286e-05 1.3643317872e-03) (0.0000000000e+00 0.0000000000e+00 0.0000000000e+00))
7.7554371280e-02	((4.0033686385e-01 1.3395407619e+00 3.0491201734e-20) (1.6916214695e-02 -7.5973446088e-04 5.9750385985e-22) (0.0000000000e+00 0.0000000000e+00 0.0000000000e+00)) ((-6.6977038095e-03 2.0016843193e-03 1.3053604401e+00) (3.7986723044e-06 8.4581073474e-05 1.3558785313e-03) (0.0000000000e+00 0.0000000000e+00 0.0000000000e+00))
7.9466406846e-02	((3.9786706969e-01 1.3353309606e+00 2.7683904557e-20) (1.6832871587e-02 -7.5128356685e-04 6.0195440528e-22) (0.0000000000e+00 0.0000000000e+00 0.0000000000e+00)) ((-6.6766548029e-03 1.9893353485e-03 1.2986327919e+00) (3.7564178342e-06 8.4164357937e-05 1.3475785845e-03) (0.0000000000e+00 0.0000000000e+00 0.0000000000e+00))
8.1381853968e-02	((3.9545986248e-01 1.3312923099e+00 2.4878847864e-20) (1.6751174124e-02 -7.4287411355e-04 6.0519015269e-22) (0.0000000000e+00 0.0000000000e+00 0.0000000000e+00)) ((-6.6564615496e-03 1.9772993124e-03 1.2921069151e+00) (3.7143705678e-06 8.3755870620e-05 1.3395201372e-03) (0.0000000000e+00 0.0000000000e+00 0.0000000000e+00))
8.3298904328e-02	((3.9310811561e-01 1.3274220145e+00 2.2080792311e-20) (1.6671234844e-02 -7.3458002740e-04 6.0982137358e-22) (0.0000000000e+00 0.0000000000e+00 0.0000000000e+00)) ((-6.6371100726e-03 1.9655405781e-03 1.2857887748e+00) (3.6729001370e-06 8.3356174221e-05 1.3316894622e-03) (0.0000000000e+00 0.0000000000e+00 0.0000000000e+00))
8.5218570498e-02	((3.9081193443e-01 1.3237091142e+00 1.9169898944e-20) (1.6593251483e-02 -7.2642506189e-04 6.1327315017e-22) (0.0000000000e+00 0.0000000000e+00 0.0000000000e+00)) ((-6.6185455708e-03 1.9540596721e-03 1.2796621886e+00) (3.6321253095e-06 8.2966257413e-05 1.3240854594e-03) (0.0000000000e+00 0.0000000000e+00 0.0000000000e+00))
8.7138236667e-02	((3.8857576903e-01 1.3201614070e+00 1.6259279536e-20) (1.6517296773e-02 -7.1841639000e-04 6.1672810766e-22) (0.0000000000e+00 0.0000000000e+00 0.0000000000e+00)) ((-6.6008070349e-03 1.9428788451e-03 1.2737401980e+00) (3.5920819500e-06 8.2586483864e-05 1.3166969249e-03) (0.0000000000e+00 0.0000000000e+00 0.0000000000e+00))
8.9063053160e-02	((3.8638570509e-01 1.3167249553e+00 1.3254414268e-20) (1.6442891585e-02 -7.1034317153e-04 6.2172226701e-22) (0.0000000000e+00 0.0000000000e+00 0.0000000000e+00)) ((-6.5836247765e-03 1.9319285254e-03 1.2679586444e+00) (3.5517158576e-06 8.2214457924e-05 1.3096755443e-03) (0.0000000000e+00 0.0000000000e+00 0.0000000000e+00))
9.0988571970e-02	((3.8425270583e-01 1.3134535427e+00 1.0141189926e-20) (1.6370656856e-02 -7.0242581348e-04 6.2495305918e-22) (0.0000000000e+00 0.0000000000e+00 0.0000000000e+00)) ((-6.5672677135e-03 1.9212635291e-03 1.2623802156e+00) (3.5121290674e-06 8.1853284282e-05 1.3029223608e-03) (0.0000000000e+00 0.0000000000e+00 0.0000000000e+00))
9.2914090780e-02	((3.8217552291e-01 1.3102967440e+00 7.3529404225e-21) (1.6300454542e-02 -6.9462960311e-04 6.2805912337e-22) (0.0000000000e+00 0.0000000000e+00 0.0000000000e+00)) ((-6.5514837201e-03 1.9108776146e-03 1.2569463696e+00) (3.4731480155e-06 8.1502272711e-05 1.2964207408e-03) (0.0000000000e+00 0.0000000000e+00 0.0000000000e+00))
9.4839609589e-02	((3.8015168143e-01 1.3072668123e+00 4.4457102545e-21) (1.6232216215e-02 -6.8692880729e-04 6.3128362868e-22) (0.0000000000e+00 0.0000000000e+00 0.0000000000e+00)) ((-6.5363340616e-03 1.9007584072e-03 1.2516837985e+00) (3.4346440365e-06 8.1161081075e-05 1.2901817097e-03) (0.0000000000e+00 0.0000000000e+00 0.0000000000e+00))
9.6765128399e-02	((3.7817587918e-01 1.3043559709e+00 1.5664107694e-21) (1.6165928317e-02 -6.7934765263e-04 6.3455836890e-22) (0.0000000000e+00 0.0000000000e+00 0.0000000000e+00)) ((-6.5217798544e-03 1.8908793959e-03 1.2465742347e+00) (3.3967382632e-06 8.0829641585e-05 1.2841570253e-03) (0.0000000000e+00 0.0000000000e+00 0.0000000000e+00))
9.8690647209e-02	((3.7625149523e-01 1.3015330389e+00 -1.2925617416e-21) (1.6101533518e-02 -6.7188301373e-04 6.3784841065e-22) (0.0000000000e+00 0.0000000000e+00 0.0000000000e+00)) ((-6.5076651943e-03 1.8812574761e-03 1.2415892181e+00) (3.3594150686e-06 8.0507667592e-05 1.2783290117e-03) (0.0000000000e+00 0.0000000000e+00 0.0000000000e+00))
1.0062032068e-01	((3.7436261417e-01 1.2987951543e+00 -4.2247771385e-21) (1.6038399811e-02 -6.6420186106e-04 6.4502933661e-22) (0.0000000000e+00 0.0000000000e+00 0.0000000000e+00)) ((-6.4939757714e-03 1.8718130708e-03 1.2367309552e+00) (3.3210093053e-06 8.0191999057e-05 1.2730165989e-03) (0.0000000000e+00 0.0000000000e+00 0.0000000000e+00))
1.0255994192e-01	((3.7251224623e-01 1.2961434167e+00 -7.0076706746e-21) (1.5977096531e-02 -6.5664369904e-04 6.4858405285e-22) (0.0000000000e+00 0.0000000000e+00 0.0000000000e+00)) ((-6.4807170835e-03 1.8625612311e-03 1.2319794413e+00) (3.2832184952e-06 7.9885482653e-05 1.2678527374e-03) (0.0000000000e+00 0.0000000000e+00 0.0000000000e+00))
1.0450132445e-01	((3.7070099708e-01 1.2935689469e+00 -9.8175344917e-21) (1.5917567167e-02 -6.4926891444e-04 6.5221967535e-22) (0.0000000000e+00 0.0000000000e+00 0.0000000000e+00)) ((-6.4678447343e-03 1.8535049854e-03 1.2273452275e+00) (3.2463445722e-06 7.9587835836e-05 1.2628209371e-03) (0.0000000000e+00 0.0000000000e+00 0.0000000000e+00))
1.0644444507e-01	((3.6892672231e-01 1.2910526148e+00 -1.2745396611e-20) (1.5859681831e-02 -6.4203308541e-04 6.5553391419e-22) (0.0000000000e+00 0.0000000000e+00 0.0000000000e+00)) ((-6.4552630742e-03 1.8446336115e-03 1.2228213151e+00) (3.2101654270e-06 7.9298409153e-05 1.2579285451e-03) (0.0000000000e+00 0.0000000000e+00 0.0000000000e+00))
1.0838923016e-01	((3.6719285584e-01 1.2886098067e+00 -1.5443327972e-20) (1.5803423006e-02 -6.3494828875e-04 6.5878030222e-22) (0.0000000000e+00 0.0000000000e+00 0.0000000000e+00)) ((-6.4430490337e-03 1.8359642792e-03 1.2184036828e+00) (3.1747414438e-06 7.9017115029e-05 1.2531668255e-03) (0.0000000000e+00 0.0000000000e+00 0.0000000000e+00))
1.1033561802e-01	((3.6549293086e-01 1.2862308307e+00 -1.8106857348e-20) (1.5748746160e-02 -6.2801532145e-04 6.6201953212e-22) (0.0000000000e+00 0.0000000000e+00 0.0000000000e+00)) ((-6.4311541534e-03 1.8274646543e-03 1.2140855028e+00) (3.1400766072e-06 7.8743730800e-05 1.2485246695e-03) (0.0000000000e+00 0.0000000000e+00 0.0000000000e+00))
1.1228359496e-01	((3.6382881706e-01 1.2839344476e+00 -2.0738565733e-20) (1.5695547016e-02 -6.2122019513e-04 6.6490456111e-22) (0.0000000000e+00 0.0000000000e+00 0.0000000000e+00)) ((-6.4196722378e-03 1.8191440853e-03 1.2098843389e+00) (3.1061009756e-06 7.8477735078e-05 1.2439969491e-03) (0.0000000000e+00 0.0000000000e+00 0.0000000000e+00))
1.1423318284e-01	((3.6219456857e-01 1.2817030775e+00 -2.3347940955e-20) (1.5643762845e-02 -6.1458804036e-04 6.6794339864e-22) (0.0000000000e+00 0.0000000000e+00 0.0000000000e+00)) ((-6.4085153877e-03 1.8109728429e-03 1.2057826004e+00) (3.0729402018e-06 7.8218814224e-05 1.2395692571e-03) (0.0000000000e+00 0.0000000000e+00 0.0000000000e+00))
1.1618426251e-01	((3.6059785502e-01 1.2795409752e+00 -2.5905348159e-20) (1.5593363299e-02 -6.0809145400e-04 6.7095488087e-22) (0.0000000000e+00 0.0000000000e+00 0.0000000000e+00)) ((-6.3977048758e-03 1.8029892751e-03 1.2017882256e+00) (3.0404572700e-06 7.7966816494e-05 1.2352217807e-03) (0.0000000000e+00 0.0000000000e+00 0.0000000000e+00))
1.1813675830e-01	((3.5903279368e-01 1.2774605085e+00 -2.8437911845e-20) (1.5544160422e-02 -6.0167837378e-04 6.7384119029e-22) (0.0000000000e+00 0.0000000000e+00 0.0000000000e+00)) ((-6.3873025425e-03 1.7951639684e-03 1.1979032764e+00) (3.0083918689e-06 7.7720802112e-05 1.2310045351e-03) (0.0000000000e+00 0.0000000000e+00 0.0000000000e+00))
1.2009085726e-01	((3.5749684909e-01 1.2754512755e+00 -3.0991488861e-20) (1.5496133175e-02 -5.9537210969e-04 6.7721371438e-22) (0.0000000000e+00 0.0000000000e+00 0.0000000000e+00)) ((-6.3772563777e-03 1.7874842455e-03 1.1941244331e+00) (2.9768605484e-06 7.7480665873e-05 1.2269555995e-03) (0.0000000000e+00 0.0000000000e+00 0.0000000000e+00))
1.2204623764e-01	((3.5599584627e-01 1.2735301656e+00 -3.3459509724e-20) (1.5449384344e-02 -5.8919516210e-04 6.8031444750e-22) (0.0000000000e+00 0.0000000000e+00 0.0000000000e+00)) ((-6.3676508278e-03 1.7799792314e-03 1.1904642500e+00) (2.9459758105e-06 7.7246921719e-05 1.2230079805e-03) (0.0000000000e+00 0.0000000000e+00 0.0000000000e+00))
1.2400314958e-01	((3.5452521682e-01 1.2716835102e+00 -3.5939314640e-20) (1.5403761851e-02 -5.8314925474e-04 6.8377963571e-22) (0.0000000000e+00 0.0000000000e+00 0.0000000000e+00)) ((-6.3584175511e-03 1.7726260841e-03 1.1869064186e+00) (2.9157462737e-06 7.7018809257e-05 1.2191461088e-03) (0.0000000000e+00 0.0000000000e+00 0.0000000000e+00))
1.2596135350e-01	((3.5308645431e-01 1.2699203671e+00 -3.8363433764e-20) (1.5359287399e-02 -5.7725737294e-04 6.8696600567e-22) (0.0000000000e+00 0.0000000000e+00 0.0000000000e+00)) ((-6.3496018354e-03 1.7654322715e-03 1.1834575440e+00) (2.8862868647e-06 7.6796436997e-05 1.2153640441e-03) (0.0000000000e+00 0.0000000000e+00 0.0000000000e+00))
1.2792082047e-01	((3.5167945132e-01 1.2682287929e+00 -4.0764267602e-20) (1.5315907129e-02 -5.7149003965e-04 6.9009350159e-22) (0.0000000000e+00 0.0000000000e+00 0.0000000000e+00)) ((-6.3411439645e-03 1.7583972566e-03 1.1801108493e+00) (2.8574501983e-06 7.6579535645e-05 1.2116604938e-03) (0.0000000000e+00 0.0000000000e+00 0.0000000000e+00))
1.2988162956e-01	((3.5030149382e-01 1.2666193828e+00 -4.3137377663e-20) (1.5273560234e-02 -5.6583426060e-04 6.9359215231e-22) (0.0000000000e+00 0.0000000000e+00 0.0000000000e+00)) ((-6.3330969141e-03 1.7515074691e-03 1.1768682893e+00) (2.8291713030e-06 7.6367801172e-05 1.2080420294e-03) (0.0000000000e+00 0.0000000000e+00 0.0000000000e+00))
1.3184373374e-01	((3.4895321546e-01 1.2650926806e+00 -4.5501631629e-20) (1.5232291044e-02 -5.6042295416e-04 6.9671419166e-22) (0.0000000000e+00 0.0000000000e+00 0.0000000000e+00)) ((-6.3254634029e-03 1.7447660773e-03 1.1737307350e+00) (2.8021147708e-06 7.6161455219e-05 1.2044843004e-03) (0.0000000000e+00 0.0000000000e+00 0.0000000000e+00))
1.3380703746e-01	((3.4763549327e-01 1.2636367823e+00 -4.7809471274e-20) (1.5191982968e-02 -5.5511543974e-04 6.9989903264e-22) (0.0000000000e+00 0.0000000000e+00 0.0000000000e+00)) ((-6.3181839117e-03 1.7381774664e-03 1.1706896791e+00) (2.7755771987e-06 7.5959914842e-05 1.2010178549e-03) (0.0000000000e+00 0.0000000000e+00 0.0000000000e+00))
1.3577148301e-01	((3.4634573951e-01 1.2622523989e+00 -5.0087831026e-20) (1.5152616244e-02 -5.4990325710e-04 7.0316042480e-22) (0.0000000000e+00 0.0000000000e+00 0.0000000000e+00)) ((-6.3112619944e-03 1.7317286975e-03 1.1677415144e+00) (2.7495162855e-06 7.5763081222e-05 1.1976254801e-03) (0.0000000000e+00 0.0000000000e+00 0.0000000000e+00))
1.3773703296e-01	((3.4508342698e-01 1.2609357519e+00 -5.2318085773e-20) (1.5114159023e-02 -5.4476321146e-04 7.0647205795e-22) (0.0000000000e+00 0.0000000000e+00 0.0000000000e+00)) ((-6.3046787593e-03 1.7254171349e-03 1.1648824680e+00) (2.7238160573e-06 7.5570795117e-05 1.1943357242e-03) (0.0000000000e+00 0.0000000000e+00 0.0000000000e+00))
1.3970364595e-01	((3.4384719434e-01 1.2596992081e+00 -5.4503859046e-20) (1.5076640084e-02 -5.3972275889e-04 7.0930472497e-22) (0.0000000000e+00 0.0000000000e+00 0.0000000000e+00)) ((-6.2984960406e-03 1.7192359717e-03 1.1621217810e+00) (2.6986137945e-06 7.5383200422e-05 1.1911042283e-03) (0.0000000000e+00 0.0000000000e+00 0.0000000000e+00))
1.4167151777e-01	((3.4263303965e-01 1.2585269224e+00 -5.6689123090e-20) (1.5039985786e-02 -5.3478782346e-04 7.1252686807e-22) (0.0000000000e+00 0.0000000000e+00 0.0000000000e+00)) ((-6.2926346121e-03 1.7131651983e-03 1.1594426649e+00) (2.6739391173e-06 7.5199928932e-05 1.1879399306e-03) (0.0000000000e+00 0.0000000000e+00 0.0000000000e+00))
1.4364038112e-01	((3.4144384613e-01 1.2574316177e+00 -5.8852368080e-20) (1.5004212928e-02 -5.2994384863e-04 7.1567475013e-22) (0.0000000000e+00 0.0000000000e+00 0.0000000000e+00)) ((-6.2871580884e-03 1.7072192306e-03 1.1568597254e+00) (2.6497192432e-06 7.5021064638e-05 1.1848336678e-03) (0.0000000000e+00 0.0000000000e+00 0.0000000000e+00))
1.4561007147e-01	((3.4027354633e-01 1.2563751450e+00 -6.1000680129e-20) (1.4969307751e-02 -5.2517998112e-04 7.1868863819e-22) (0.0000000000e+00 0.0000000000e+00 0.0000000000e+00)) ((-6.2818757248e-03 1.7013677316e-03 1.1543298770e+00) (2.6258999056e-06 7.4846538754e-05 1.1817882144e-03) (0.0000000000e+00 0.0000000000e+00 0.0000000000e+00))
1.4758072106e-01	((3.3912702640e-01 1.2553901682e+00 -6.3115326396e-20) (1.4935264946e-02 -5.2049924777e-04 7.2103797007e-22) (0.0000000000e+00 0.0000000000e+00 0.0000000000e+00)) ((-6.2769508412e-03 1.6956351320e-03 1.1518891754e+00) (2.6024962389e-06 7.4676324731e-05 1.1787957814e-03) (0.0000000000e+00 0.0000000000e+00 0.0000000000e+00))
1.4955247876e-01	((3.3800129070e-01 1.2544637856e+00 -6.5219300999e-20) (1.4901961050e-02 -5.1585547048e-04 7.2383460848e-22) (0.0000000000e+00 0.0000000000e+00 0.0000000000e+00)) ((-6.2723189281e-03 1.6900064535e-03 1.1495236458e+00) (2.5792773524e-06 7.4509805252e-05 1.1758738655e-03) (0.0000000000e+00 0.0000000000e+00 0.0000000000e+00))
1.5152462580e-01	((3.3689674558e-01 1.2535939490e+00 -6.7299024622e-20) (1.4869507431e-02 -5.1130296817e-04 7.2607189340e-22) (0.0000000000e+00 0.0000000000e+00 0.0000000000e+00)) ((-6.2679697452e-03 1.6844837279e-03 1.1472306695e+00) (2.5565148409e-06 7.4347537153e-05 1.1729929358e-03) (0.0000000000e+00 0.0000000000e+00 0.0000000000e+00))
1.5349825517e-01	((3.3581209413e-01 1.2527771279e+00 -6.9389688863e-20) (1.4837767340e-02 -5.0680699384e-04 7.2879268310e-22) (0.0000000000e+00 0.0000000000e+00 0.0000000000e+00)) ((-6.2638856394e-03 1.6790604707e-03 1.1450072932e+00) (2.5340349692e-06 7.4188836698e-05 1.1701603357e-03) (0.0000000000e+00 0.0000000000e+00 0.0000000000e+00))
1.5547201344e-01	((3.3474721281e-01 1.2520115536e+00 -7.1428235270e-20) (1.4806847061e-02 -5.0243443270e-04 7.3085679208e-22) (0.0000000000e+00 0.0000000000e+00 0.0000000000e+00)) ((-6.2600577679e-03 1.6737360640e-03 1.1428517974e+00) (2.5121721635e-06 7.4034235303e-05 1.1673527139e-03) (0.0000000000e+00 0.0000000000e+00 0.0000000000e+00))
1.5744704853e-01	((3.3369972419e-01 1.2513007289e+00 -7.3473953524e-20) (1.4776596069e-02 -4.9811003762e-04 7.3350827488e-22) (0.0000000000e+00 0.0000000000e+00 0.0000000000e+00)) ((-6.2565036444e-03 1.6684986209e-03 1.1407655581e+00) (2.4905501881e-06 7.3882980344e-05 1.1645924689e-03) (0.0000000000e+00 0.0000000000e+00 0.0000000000e+00))
1.5942258017e-01	((3.3267075097e-01 1.2506331829e+00 -7.5468016049e-20) (1.4747108310e-02 -4.9388481387e-04 7.3546085857e-22) (0.0000000000e+00 0.0000000000e+00 0.0000000000e+00)) ((-6.2531659145e-03 1.6633537548e-03 1.1387396591e+00) (2.4694240694e-06 7.3735541548e-05 1.1618699775e-03) (0.0000000000e+00 0.0000000000e+00 0.0000000000e+00))
1.6139811181e-01	((3.3166021874e-01 1.2500113679e+00 -7.7438692379e-20) (1.4718303418e-02 -4.8965725122e-04 7.3766976893e-22) (0.0000000000e+00 0.0000000000e+00 0.0000000000e+00)) ((-6.2500568395e-03 1.6583010937e-03 1.1367749727e+00) (2.4482862561e-06 7.3591517090e-05 1.1592335188e-03) (0.0000000000e+00 0.0000000000e+00 0.0000000000e+00))
1.6337531866e-01	((3.3066561138e-01 1.2494411186e+00 -7.9375822353e-20) (1.4690095556e-02 -4.8548252871e-04 7.4057204844e-22) (0.0000000000e+00 0.0000000000e+00 0.0000000000e+00)) ((-6.2472055930e-03 1.6533280569e-03 1.1348749182e+00) (2.4274126436e-06 7.3450477779e-05 1.1566232789e-03) (0.0000000000e+00 0.0000000000e+00 0.0000000000e+00))
1.6535289325e-01	((3.2969045705e-01 1.2489119206e+00 -8.1298106730e-20) (1.4662621654e-02 -4.8142973482e-04 7.4267465319e-22) (0.0000000000e+00 0.0000000000e+00 0.0000000000e+00)) ((-6.2445596029e-03 1.6484522852e-03 1.1330324218e+00) (2.4071486741e-06 7.3313108271e-05 1.1540276001e-03) (0.0000000000e+00 0.0000000000e+00 0.0000000000e+00))