# Forces         
# CofR           : (0.0000000000e+00 0.0000000000e+00 0.0000000000e+00)
# Time           forces(pressure viscous porous) moment(pressure viscous porous)
1.9123518015e-03	((4.9579534970e+00 2.4658001130e+01 -1.2725003281e-18) (1.5490055965e-01 -3.4352565661e-02 1.5578994955e-21) (0.0000000000e+00 0.0000000000e+00 0.0000000000e+00)) ((-1.2329000565e+00 2.4789767485e-01 6.3869026285e+00) (1.7176282831e-03 7.7450279824e-03 -4.4998061595e-02) (0.0000000000e+00 0.0000000000e+00 0.0000000000e+00))
3.7808021949e-03	((4.9732336085e+00 2.4849489485e+01 -1.2762147873e-18) (1.3844492624e-01 -2.8399499513e-02 1.4055804147e-21) (0.0000000000e+00 0.0000000000e+00 0.0000000000e+00)) ((-1.2424744743e+00 2.4866168043e-01 6.4298162350e+00) (1.4199749756e-03 6.9222463121e-03 -3.9817191627e-02) (0.0000000000e+00 0.0000000000e+00 0.0000000000e+00))
5.6382512539e-03	((4.9798719408e+00 2.4887667134e+01 -1.2888941117e-18) (1.3230277862e-01 -2.4814877958e-02 1.4284509775e-21) (0.0000000000e+00 0.0000000000e+00 0.0000000000e+00)) ((-1.2443833567e+00 2.4899359704e-01 6.4501067372e+00) (1.2407438979e-03 6.6151389312e-03 -3.7479699439e-02) (0.0000000000e+00 0.0000000000e+00 0.0000000000e+00))
7.4887662395e-03	((4.9745705519e+00 2.4879688375e+01 -1.2864738960e-18) (1.3090744062e-01 -2.2610501309e-02 1.4087775865e-21) (0.0000000000e+00 0.0000000000e+00 0.0000000000e+00)) ((-1.2439844188e+00 2.4872852760e-01 6.4572254861e+00) (1.1305250655e-03 6.5453720312e-03 -3.6559020183e-02) (0.0000000000e+00 0.0000000000e+00 0.0000000000e+00))
9.3322438056e-03	((4.9733467178e+00 2.4874878262e+01 -1.2860964293e-18) (1.3167597142e-01 -2.1477616184e-02 1.4129064576e-21) (0.0000000000e+00 0.0000000000e+00 0.0000000000e+00)) ((-1.2437439131e+00 2.4866733589e-01 6.4652172991e+00) (1.0738808092e-03 6.5837985709e-03 -3.6359357493e-02) (0.0000000000e+00 0.0000000000e+00 0.0000000000e+00))
1.1168269609e-02	((4.9737355538e+00 2.4880183259e+01 -1.2856580826e-18) (1.3330366407e-01 -2.1105560589e-02 1.4207898178e-21) (0.0000000000e+00 0.0000000000e+00 0.0000000000e+00)) ((-1.2440091630e+00 2.4868677769e-01 6.4746707215e+00) (1.0552780295e-03 6.6651832033e-03 -3.6512065881e-02) (0.0000000000e+00 0.0000000000e+00 0.0000000000e+00))
1.2996736661e-02	((4.9657953729e+00 2.4880146566e+01 -1.2842103271e-18) (1.3507555372e-01 -2.1145109814e-02 1.4354983464e-21) (0.0000000000e+00 0.0000000000e+00 0.0000000000e+00)) ((-1.2440073283e+00 2.4828976865e-01 6.4795836930e+00) (1.0572554907e-03 6.7537776861e-03 -3.6805717380e-02) (0.0000000000e+00 0.0000000000e+00 0.0000000000e+00))
1.4817810742e-02	((4.9492620420e+00 2.4878309090e+01 -1.2807999569e-18) (1.3668589645e-01 -2.1369353887e-02 1.4156800720e-21) (0.0000000000e+00 0.0000000000e+00 0.0000000000e+00)) ((-1.2439154545e+00 2.4746310210e-01 6.4798624270e+00) (1.0684676944e-03 6.8342948224e-03 -3.7129534390e-02) (0.0000000000e+00 0.0000000000e+00 0.0000000000e+00))
1.6631843170e-02	((4.9294352703e+00 2.4883663502e+01 -1.2760203716e-18) (1.3803847560e-01 -2.1637396466e-02 1.3862772586e-21) (0.0000000000e+00 0.0000000000e+00 0.0000000000e+00)) ((-1.2441831751e+00 2.4647176352e-01 6.4785469215e+00) (1.0818698233e-03 6.9019237802e-03 -3.7430007948e-02) (0.0000000000e+00 0.0000000000e+00 0.0000000000e+00))
1.8439442486e-02	((4.9121708681e+00 2.4900766172e+01 -1.2725584213e-18) (1.3913981353e-01 -2.1882791452e-02 1.3719141135e-21) (0.0000000000e+00 0.0000000000e+00 0.0000000000e+00)) ((-1.2450383086e+00 2.4560854341e-01 6.4786314674e+00) (1.0941395726e-03 6.9569906764e-03 -3.7688388754e-02) (0.0000000000e+00 0.0000000000e+00 0.0000000000e+00))
2.0241326145e-02	((4.8989529198e+00 2.4929185070e+01 -1.2711243311e-18) (1.4003537725e-01 -2.2081402545e-02 1.3665740299e-21) (0.0000000000e+00 0.0000000000e+00 0.0000000000e+00)) ((-1.2464592535e+00 2.4494764599e-01 6.4806487182e+00) (1.1040701273e-03 7.0017688624e-03 -3.7902970385e-02) (0.0000000000e+00 0.0000000000e+00 0.0000000000e+00))
2.2038308462e-02	((4.8903916437e+00 2.4965526451e+01 -1.2711532313e-18) (1.4079047608e-01 -2.2239351090e-02 1.3654992732e-21) (0.0000000000e+00 0.0000000000e+00 0.0000000000e+00)) ((-1.2482763226e+00 2.4451958218e-01 6.4846946221e+00) (1.1119675545e-03 7.0395238042e-03 -3.8080437463e-02) (0.0000000000e+00 0.0000000000e+00 0.0000000000e+00))
2.3831408963e-02	((4.8850362132e+00 2.5004586243e+01 -1.2723381905e-18) (1.4144945188e-01 -2.2364281792e-02 1.3700639726e-21) (0.0000000000e+00 0.0000000000e+00 0.0000000000e+00)) ((-1.2502293122e+00 2.4425181066e-01 6.4898401322e+00) (1.1182140896e-03 7.0724725939e-03 -3.8226224765e-02) (0.0000000000e+00 0.0000000000e+00 0.0000000000e+00))
2.5621477770e-02	((4.8817456762e+00 2.5043524755e+01 -1.2742950168e-18) (1.4203333628e-01 -2.2463289123e-02 1.3782886634e-21) (0.0000000000e+00 0.0000000000e+00 0.0000000000e+00)) ((-1.2521762378e+00 2.4408728381e-01 6.4953228575e+00) (1.1231644562e-03 7.1016668141e-03 -3.8347366126e-02) (0.0000000000e+00 0.0000000000e+00 0.0000000000e+00))
2.7409260270e-02	((4.8801010459e+00 2.5082072762e+01 -1.2769345433e-18) (1.4255796871e-01 -2.2547669120e-02 1.3873456977e-21) (0.0000000000e+00 0.0000000000e+00 0.0000000000e+00)) ((-1.2541036381e+00 2.4400505230e-01 6.5010053635e+00) (1.1273834560e-03 7.1278984357e-03 -3.8451576819e-02) (0.0000000000e+00 0.0000000000e+00 0.0000000000e+00))
2.9195179456e-02	((4.8796808149e+00 2.5119823331e+01 -1.2800070422e-18) (1.4303326788e-01 -2.2625259680e-02 1.3956188193e-21) (0.0000000000e+00 0.0000000000e+00 0.0000000000e+00)) ((-1.2559911665e+00 2.4398404074e-01 6.5066902970e+00) (1.1312629840e-03 7.1516633938e-03 -3.8543579488e-02) (0.0000000000e+00 0.0000000000e+00 0.0000000000e+00))
3.0979731692e-02	((4.8796971733e+00 2.5155448008e+01 -1.2831009401e-18) (1.4346603623e-01 -2.2699877237e-02 1.4022918402e-21) (0.0000000000e+00 0.0000000000e+00 0.0000000000e+00)) ((-1.2577724004e+00 2.4398485867e-01 6.5119291058e+00) (1.1349938618e-03 7.1733018117e-03 -3.8626187129e-02) (0.0000000000e+00 0.0000000000e+00 0.0000000000e+00))
3.2762919705e-02	((4.8789842800e+00 2.5187908550e+01 -1.2860094191e-18) (1.4385678666e-01 -2.2771824600e-02 1.4075143817e-21) (0.0000000000e+00 0.0000000000e+00 0.0000000000e+00)) ((-1.2593954275e+00 2.4394921400e-01 6.5161274316e+00) (1.1385912300e-03 7.1928393331e-03 -3.8701730474e-02) (0.0000000000e+00 0.0000000000e+00 0.0000000000e+00))
3.4545010155e-02	((4.8783188598e+00 2.5217105894e+01 -1.2886216130e-18) (1.4421303719e-01 -2.2845389466e-02 1.4100848561e-21) (0.0000000000e+00 0.0000000000e+00 0.0000000000e+00)) ((-1.2608552947e+00 2.4391594299e-01 6.5197931813e+00) (1.1422694733e-03 7.2106518594e-03 -3.8772304297e-02) (0.0000000000e+00 0.0000000000e+00 0.0000000000e+00))
3.6326033712e-02	((4.8771692357e+00 2.5243104646e+01 -1.2908172761e-18) (1.4453691352e-01 -2.2920258986e-02 1.4108042634e-21) (0.0000000000e+00 0.0000000000e+00 0.0000000000e+00)) ((-1.2621552323e+00 2.4385846178e-01 6.5227346998e+00) (1.1460129493e-03 7.2268456758e-03 -3.8839110880e-02) (0.0000000000e+00 0.0000000000e+00 0.0000000000e+00))
3.8106021679e-02	((4.8745894079e+00 2.5265192677e+01 -1.2925589466e-18) (1.4483037191e-01 -2.2995496388e-02 1.4106033611e-21) (0.0000000000e+00 0.0000000000e+00 0.0000000000e+00)) ((-1.2632596338e+00 2.4372947039e-01 6.5244148095e+00) (1.1497748194e-03 7.2415185953e-03 -3.8902689222e-02) (0.0000000000e+00 0.0000000000e+00 0.0000000000e+00))
3.9884986239e-02	((4.8710112433e+00 2.5284360975e+01 -1.2937460653e-18) (1.4509506175e-01 -2.3070075622e-02 1.4103151643e-21) (0.0000000000e+00 0.0000000000e+00 0.0000000000e+00)) ((-1.2642180488e+00 2.4355056217e-01 6.5252456003e+00) (1.1535037811e-03 7.2547530875e-03 -3.8963390885e-02) (0.0000000000e+00 0.0000000000e+00 0.0000000000e+00))
4.1663003163e-02	((4.8666189156e+00 2.5300951286e+01 -1.2944513736e-18) (1.4533281179e-01 -2.3142684213e-02 1.4103662074e-21) (0.0000000000e+00 0.0000000000e+00 0.0000000000e+00)) ((-1.2650475643e+00 2.4333094578e-01 6.5253556273e+00) (1.1571342106e-03 7.2666405896e-03 -3.9021040314e-02) (0.0000000000e+00 0.0000000000e+00 0.0000000000e+00))
4.3440176411e-02	((4.8621878358e+00 2.5316260375e+01 -1.2948520366e-18) (1.4554521683e-01 -2.3211667787e-02 1.4108785897e-21) (0.0000000000e+00 0.0000000000e+00 0.0000000000e+00)) ((-1.2658130187e+00 2.4310939179e-01 6.5253131425e+00) (1.1605833893e-03 7.2772608414e-03 -3.9075166927e-02) (0.0000000000e+00 0.0000000000e+00 0.0000000000e+00))
4.5216552780e-02	((4.8583368571e+00 2.5330972497e+01 -1.2951614075e-18) (1.4573477452e-01 -2.3275754639e-02 1.4124762171e-21) (0.0000000000e+00 0.0000000000e+00 0.0000000000e+00)) ((-1.2665486249e+00 2.4291684285e-01 6.5255059779e+00) (1.1637877320e-03 7.2867387258e-03 -3.9125208117e-02) (0.0000000000e+00 0.0000000000e+00 0.0000000000e+00))
4.6991822517e-02	((4.8551300251e+00 2.5345386217e+01 -1.2955348878e-18) (1.4590400426e-01 -2.3334629277e-02 1.4134709430e-21) (0.0000000000e+00 0.0000000000e+00 0.0000000000e+00)) ((-1.2672693109e+00 2.4275650126e-01 6.5259596879e+00) (1.1667314639e-03 7.2952002129e-03 -3.9171213352e-02) (0.0000000000e+00 0.0000000000e+00 0.0000000000e+00))
4.8766489495e-02	((4.8526916556e+00 2.5359861982e+01 -1.2960502802e-18) (1.4605553305e-01 -2.3388189112e-02 1.4144894549e-21) (0.0000000000e+00 0.0000000000e+00 0.0000000000e+00)) ((-1.2679930991e+00 2.4263458278e-01 6.5267908670e+00) (1.1694094556e-03 7.3027766524e-03 -3.9213253019e-02) (0.0000000000e+00 0.0000000000e+00 0.0000000000e+00))
5.0540503016e-02	((4.8511018560e+00 2.5374246670e+01 -1.2966648975e-18) (1.4619151131e-01 -2.3436413636e-02 1.4163772425e-21) (0.0000000000e+00 0.0000000000e+00 0.0000000000e+00)) ((-1.2687123335e+00 2.4255509280e-01 6.5280254016e+00) (1.1718206818e-03 7.3095755654e-03 -3.9251487254e-02) (0.0000000000e+00 0.0000000000e+00 0.0000000000e+00))
5.2313491837e-02	((4.8507043372e+00 2.5389350312e+01 -1.2974107138e-18) (1.4631443507e-01 -2.3479941417e-02 1.4172280659e-21) (0.0000000000e+00 0.0000000000e+00 0.0000000000e+00)) ((-1.2694675156e+00 2.4253521686e-01 6.5299941942e+00) (1.1739970709e-03 7.3157217535e-03 -3.9286433677e-02) (0.0000000000e+00 0.0000000000e+00 0.0000000000e+00))
5.4086224483e-02	((4.8505458917e+00 2.5403880058e+01 -1.2982125933e-18) (1.4642593889e-01 -2.3518890727e-02 1.4188643406e-21) (0.0000000000e+00 0.0000000000e+00 0.0000000000e+00)) ((-1.2701940029e+00 2.4252729459e-01 6.5319939533e+00) (1.1759445364e-03 7.3212969445e-03 -3.9318259229e-02) (0.0000000000e+00 0.0000000000e+00 0.0000000000e+00))
5.5857694811e-02	((4.8507268312e+00 2.5417939173e+01 -1.2989764412e-18) (1.4652789584e-01 -2.3553971035e-02 1.4192924634e-21) (0.0000000000e+00 0.0000000000e+00 0.0000000000e+00)) ((-1.2708969587e+00 2.4253634156e-01 6.5341021052e+00) (1.1776985517e-03 7.3263947921e-03 -3.9347434082e-02) (0.0000000000e+00 0.0000000000e+00 0.0000000000e+00))
5.7629055372e-02	((4.8510366865e+00 2.5431677969e+01 -1.2997662294e-18) (1.4662141205e-01 -2.3585362881e-02 1.4206518309e-21) (0.0000000000e+00 0.0000000000e+00 0.0000000000e+00)) ((-1.2715838984e+00 2.4255183432e-01 6.5362464500e+00) (1.1792681440e-03 7.3310706023e-03 -3.9374226894e-02) (0.0000000000e+00 0.0000000000e+00 0.0000000000e+00))
5.9399250958e-02	((4.8513587699e+00 2.5444660698e+01 -1.3004510701e-18) (1.4670777135e-01 -2.3613705757e-02 1.4207299716e-21) (0.0000000000e+00 0.0000000000e+00 0.0000000000e+00)) ((-1.2722330349e+00 2.4256793849e-01 6.5382968775e+00) (1.1806852878e-03 7.3353885676e-03 -3.9399115413e-02) (0.0000000000e+00 0.0000000000e+00 0.0000000000e+00))
6.1169117960e-02	((4.8517839592e+00 2.5457083923e+01 -1.3010143480e-18) (1.4678770551e-01 -2.3639157324e-02 1.4218211536e-21) (0.0000000000e+00 0.0000000000e+00 0.0000000000e+00)) ((-1.2728541962e+00 2.4258919796e-01 6.5403282893e+00) (1.1819578662e-03 7.3393852757e-03 -3.9422253466e-02) (0.0000000000e+00 0.0000000000e+00 0.0000000000e+00))
6.2938650395e-02	((4.8521343782e+00 2.5468952272e+01 -1.3015070972e-18) (1.4686242853e-01 -2.3662263929e-02 1.4215658036e-21) (0.0000000000e+00 0.0000000000e+00 0.0000000000e+00)) ((-1.2734476136e+00 2.4260671891e-01 6.5422527795e+00) (1.1831131964e-03 7.3431214263e-03 -3.9443960479e-02) (0.0000000000e+00 0.0000000000e+00 0.0000000000e+00))
6.4706844555e-02	((4.8524523763e+00 2.5480333461e+01 -1.3019249167e-18) (1.4693221665e-01 -2.3683069346e-02 1.4224629212e-21) (0.0000000000e+00 0.0000000000e+00 0.0000000000e+00)) ((-1.2740166730e+00 2.4262261881e-01 6.5441235599e+00) (1.1841534673e-03 7.3466108327e-03 -3.9464233974e-02) (0.0000000000e+00 0.0000000000e+00 0.0000000000e+00))
6.6475038716e-02	((4.8527219095e+00 2.5491277082e+01 -1.3022910638e-18) (1.4699785282e-01 -2.3701773488e-02 1.4232809821e-21) (0.0000000000e+00 0.0000000000e+00 0.0000000000e+00)) ((-1.2745638541e+00 2.4263609547e-01 6.5459279871e+00) (1.1850886744e-03 7.3498926412e-03 -3.9483199823e-02) (0.0000000000e+00 0.0000000000e+00 0.0000000000e+00))
6.8243232876e-02	((4.8528085975e+00 2.5501670453e+01 -1.3026038289e-18) (1.4705971262e-01 -2.3718568059e-02 1.4240242349e-21) (0.0000000000e+00 0.0000000000e+00 0.0000000000e+00)) ((-1.2750835227e+00 2.4264042988e-01 6.5475638109e+00) (1.1859284029e-03 7.3529856309e-03 -3.9500914416e-02) (0.0000000000e+00 0.0000000000e+00 0.0000000000e+00))
7.0009497382e-02	((4.8529554674e+00 2.5511703862e+01 -1.3028639844e-18) (1.4711823551e-01 -2.3733868245e-02 1.4231836851e-21) (0.0000000000e+00 0.0000000000e+00 0.0000000000e+00)) ((-1.2755851931e+00 2.4264777337e-01 6.5491992363e+00) (1.1866934123e-03 7.3559117757e-03 -3.9517579606e-02) (0.0000000000e+00 0.0000000000e+00 0.0000000000e+00))
7.1775722507e-02	((4.8530929995e+00 2.5521206412e+01 -1.3030533203e-18) (1.4717352644e-01 -2.3747612639e-02 1.4237200881e-21) (0.0000000000e+00 0.0000000000e+00 0.0000000000e+00)) ((-1.2760603206e+00 2.4265464997e-01 6.5507560224e+00) (1.1873806320e-03 7.3586763222e-03 -3.9533098332e-02) (0.0000000000e+00 0.0000000000e+00 0.0000000000e+00))
7.3541947631e-02	((4.8532732546e+00 2.5530520803e+01 -1.3032377845e-18) (1.4722604875e-01 -2.3760201455e-02 1.4242347847e-21) (0.0000000000e+00 0.0000000000e+00 0.0000000000e+00)) ((-1.2765260402e+00 2.4266366273e-01 6.5523347942e+00) (1.1880100727e-03 7.3613024373e-03 -3.9547670560e-02) (0.0000000000e+00 0.0000000000e+00 0.0000000000e+00))
7.5308172756e-02	((4.8536396623e+00 2.5539746242e+01 -1.3033648654e-18) (1.4727611220e-01 -2.3771847224e-02 1.4246803770e-21) (0.0000000000e+00 0.0000000000e+00 0.0000000000e+00)) ((-1.2769873121e+00 2.4268198311e-01 6.5540152441e+00) (1.1885923612e-03 7.3638056101e-03 -3.9561399580e-02) (0.0000000000e+00 0.0000000000e+00 0.0000000000e+00))
7.7072839447e-02	((4.8539970667e+00 2.5548820150e+01 -1.3035056373e-18) (1.4732424895e-01 -2.3782909176e-02 1.4231364816e-21) (0.0000000000e+00 0.0000000000e+00 0.0000000000e+00)) ((-1.2774410075e+00 2.4269985334e-01 6.5556874901e+00) (1.1891454588e-03 7.3662124477e-03 -3.9574484070e-02) (0.0000000000e+00 0.0000000000e+00 0.0000000000e+00))
7.8836467182e-02	((4.8543446400e+00 2.5557651152e+01 -1.3036381516e-18) (1.4737006614e-01 -2.3793028005e-02 1.4235525417e-21) (0.0000000000e+00 0.0000000000e+00 0.0000000000e+00)) ((-1.2778825576e+00 2.4271723200e-01 6.5573345301e+00) (1.1896514002e-03 7.3685033069e-03 -3.9586735516e-02) (0.0000000000e+00 0.0000000000e+00 0.0000000000e+00))
8.0600094917e-02	((4.8546561235e+00 2.5566443878e+01 -1.3038354637e-18) (1.4741410990e-01 -2.3802534616e-02 1.4240353451e-21) (0.0000000000e+00 0.0000000000e+00 0.0000000000e+00)) ((-1.2783221939e+00 2.4273280617e-01 6.5589729546e+00) (1.1901267308e-03 7.3707054948e-03 -3.9598357643e-02) (0.0000000000e+00 0.0000000000e+00 0.0000000000e+00))
8.2363722651e-02	((4.8549099022e+00 2.5574894336e+01 -1.3039755026e-18) (1.4745640415e-01 -2.3811449895e-02 1.4244610901e-21) (0.0000000000e+00 0.0000000000e+00 0.0000000000e+00)) ((-1.2787447168e+00 2.4274549511e-01 6.5605426824e+00) (1.1905724947e-03 7.3728202076e-03 -3.9609382651e-02) (0.0000000000e+00 0.0000000000e+00 0.0000000000e+00))
8.4127350386e-02	((4.8554516888e+00 2.5583523393e+01 -1.3041119786e-18) (1.4749730787e-01 -2.3819975104e-02 1.4248814089e-21) (0.0000000000e+00 0.0000000000e+00 0.0000000000e+00)) ((-1.2791761696e+00 2.4277258444e-01 6.5623124782e+00) (1.1909987552e-03 7.3748653933e-03 -3.9619951297e-02) (0.0000000000e+00 0.0000000000e+00 0.0000000000e+00))
8.5890978121e-02	((4.8558103856e+00 2.5591846680e+01 -1.3042621076e-18) (1.4753690958e-01 -2.3828109199e-02 1.4253220770e-21) (0.0000000000e+00 0.0000000000e+00 0.0000000000e+00)) ((-1.2795923340e+00 2.4279051928e-01 6.5639499958e+00) (1.1914054600e-03 7.3768454792e-03 -3.9630098924e-02) (0.0000000000e+00 0.0000000000e+00 0.0000000000e+00))
8.7654605856e-02	((4.8562537573e+00 2.5600165546e+01 -1.3044079170e-18) (1.4757539600e-01 -2.3835888561e-02 1.4257605004e-21) (0.0000000000e+00 0.0000000000e+00 0.0000000000e+00)) ((-1.2800082773e+00 2.4281268787e-01 6.5656450547e+00) (1.1917944281e-03 7.3787698001e-03 -3.9639878039e-02) (0.0000000000e+00 0.0000000000e+00 0.0000000000e+00))
8.9413646120e-02	((4.8567737560e+00 2.5608454552e+01 -1.3045264359e-18) (1.4761335247e-01 -2.3843864033e-02 1.4222625316e-21) (0.0000000000e+00 0.0000000000e+00 0.0000000000e+00)) ((-1.2804227276e+00 2.4283868780e-01 6.5673838894e+00) (1.1921932016e-03 7.3806676237e-03 -3.9649629385e-02) (0.0000000000e+00 0.0000000000e+00 0.0000000000e+00))
9.1172176665e-02	((4.8572609933e+00 2.5616557210e+01 -1.3046504428e-18) (1.4765007433e-01 -2.3851125014e-02 1.4226672656e-21) (0.0000000000e+00 0.0000000000e+00 0.0000000000e+00)) ((-1.2808278605e+00 2.4286304967e-01 6.5690856756e+00) (1.1925562507e-03 7.3825037164e-03 -3.9658855137e-02) (0.0000000000e+00 0.0000000000e+00 0.0000000000e+00))
9.2930707210e-02	((4.8577465243e+00 2.5624574484e+01 -1.3047889072e-18) (1.4768612720e-01 -2.3858188547e-02 1.4230903010e-21) (0.0000000000e+00 0.0000000000e+00 0.0000000000e+00)) ((-1.2812287242e+00 2.4288732622e-01 6.5707802027e+00) (1.1929094274e-03 7.3843063602e-03 -3.9667874517e-02) (0.0000000000e+00 0.0000000000e+00 0.0000000000e+00))
9.4689237754e-02	((4.8582421322e+00 2.5632550451e+01 -1.3049537019e-18) (1.4772148595e-01 -2.3865058778e-02 1.4235351342e-21) (0.0000000000e+00 0.0000000000e+00 0.0000000000e+00)) ((-1.2816275225e+00 2.4291210661e-01 6.5724832754e+00) (1.1932529389e-03 7.3860742977e-03 -3.9676708357e-02) (0.0000000000e+00 0.0000000000e+00 0.0000000000e+00))
9.6447768299e-02	((4.8587861160e+00 2.5640566092e+01 -1.3051217862e-18) (1.4775623893e-01 -2.3871734237e-02 1.4239866441e-21) (0.0000000000e+00 0.0000000000e+00 0.0000000000e+00)) ((-1.2820283046e+00 2.4293930580e-01 6.5742177921e+00) (1.1935867118e-03 7.3878119463e-03 -3.9685377503e-02) (0.0000000000e+00 0.0000000000e+00 0.0000000000e+00))
9.8206298844e-02	((4.8592954137e+00 2.5648411564e+01 -1.3053080896e-18) (1.4779042245e-01 -2.3878206949e-02 1.4244409104e-21) (0.0000000000e+00 0.0000000000e+00 0.0000000000e+00)) ((-1.2824205782e+00 2.4296477069e-01 6.5759226316e+00) (1.1939103474e-03 7.3895211224e-03 -3.9693884793e-02) (0.0000000000e+00 0.0000000000e+00 0.0000000000e+00))
9.9964829389e-02	((4.8598145186e+00 2.5656177467e+01 -1.3054764323e-18) (1.4782406798e-01 -2.3884488604e-02 1.4248765782e-21) (0.0000000000e+00 0.0000000000e+00 0.0000000000e+00)) ((-1.2828088734e+00 2.4299072593e-01 6.5776202424e+00) (1.1942244302e-03 7.3912033989e-03 -3.9702234841e-02) (0.0000000000e+00 0.0000000000e+00 0.0000000000e+00))
