0.0011534152702 2.04658362104 1.31333775163 1.55593172489
0.0025246479635 1.96889882356 1.23674702215 1.51454928371
0.0038210855543 1.96538690775 1.21997132656 1.52625233085
0.0050646996681 1.97094991495 1.21156589499 1.53791488479
0.0062812365793 1.98010740465 1.20716057517 1.54846747976
0.0074816429647 1.99168018993 1.20611893935 1.5591059814
0.0086720624686 2.00309136431 1.20626247249 1.56815593786
0.0098563034153 2.01441136296 1.20732426648 1.57607645672
0.011038381496 2.02499782276 1.20857362086 1.5824604955
0.012222225946 2.03368810203 1.20900789393 1.58651256922
0.013411045448 2.04047690767 1.2081751267 1.58800770835
0.014607462142 2.0461480176 1.20639785621 1.58771895976
0.015813562507 2.05071853774 1.20370781799 1.58581678641
0.017031008567 2.05394994033 1.20011668166 1.58239964546
0.018261144465 2.05637567592 1.19601985317 1.5782250086
0.019504754617 2.05855079584 1.19160455299 1.57367892277
0.020762028086 2.06102453522 1.18732274888 1.56950804613
0.02203268 2.06374857026 1.18304574959 1.56551699681
0.023316111611 2.06676490287 1.17891578002 1.56189285772
0.024611444716 2.07019107813 1.17499829457 1.5587455499
0.025917588257 2.07404832668 1.17139196117 1.55616748028
0.027233364802 2.07838530902 1.16814870651 1.55416956685
0.02855760358 2.08290992346 1.16511488185 1.55248427926
0.029889171247 2.08764534459 1.16232422386 1.55109733062
0.031227023149 2.09268089358 1.15986171014 1.55015752851
0.032570228758 2.09759433578 1.15753015153 1.5492263508
0.033918009828 2.10256196145 1.15537217978 1.54841643314
0.03526972722 2.10746837737 1.15336401571 1.54765625716
0.036624873454 2.11223326062 1.1514339379 1.54681395372
0.037983050628 2.11700303355 1.14967706183 1.54603281278
0.03934395744 2.12162690985 1.14795903591 1.545120732
0.040707368175 2.12619663432 1.14630707456 1.5441256946
0.042073118549 2.13052383756 1.14462483252 1.54291437386
0.043441098161 2.13459362933 1.1428319891 1.54140060223
0.044811229808 2.13829804864 1.14087181012 1.53950597513
0.046183473658 2.14158345014 1.138665029 1.53715375194
0.047557815381 2.14443197872 1.13616561094 1.53429993384
0.048934259753 2.14684127783 1.13336084023 1.5309428521
0.050312833564 2.14880287446 1.13031778784 1.52716469162
0.051693573855 2.150375075 1.12699936041 1.52296118307
0.053076534956 2.15157147292 1.12348888393 1.51842861013
0.054461776021 2.15243890014 1.11981830454 1.51362986037
0.055849358983 2.15303314024 1.11602563325 1.50861940805
0.057239351296 2.15339477667 1.11213182531 1.50344674939
0.058631817432 2.15352994214 1.10816313926 1.49814183148
0.060026818292 2.15348182892 1.10413029122 1.49273656709
0.061424405194 2.15327685816 1.10007503222 1.48728486657
0.062824627335 2.15294003689 1.09599167835 1.48178934968
0.064227525193 2.15247755229 1.09187757479 1.47625833507
0.065633127045 2.15194464803 1.08779585197 1.47076753997
0.067041458711 2.15128615714 1.08366452544 1.46521880597
0.068452533517 2.15059371748 1.07957184592 1.45972865343
0.06986635427 2.14986921538 1.07552114782 1.45430660617
0.071282915889 2.1491279627 1.07149554521 1.44893388191
0.072702201292 2.14838363971 1.0675302365 1.44365791726
0.074124184587 2.14766283074 1.06362887016 1.43848307329
0.075548827507 2.14696927899 1.05977860449 1.43339575392
0.07697608263 2.14629460881 1.05599765829 1.42841235975
0.078405894943 2.14570332739 1.05231040798 1.423573497
0.079838200011 2.14513322642 1.04867759478 1.4188216239
0.081272927314 2.14465899663 1.04515155284 1.41423053478
0.082710001338 2.14422475883 1.04168412802 1.40973098069
0.084149338017 2.14385837376 1.03830008861 1.40535733714
0.085590859332 2.1435606499 1.03498751138 1.40109548501
0.08703447985 2.1433270268 1.03174757809 1.39694490318
0.088480113183 2.14320218231 1.02859272916 1.3929308055
0.089927672006 2.1430973652 1.02549179633 1.38899860553
0.091377067492 2.14305096583 1.0224550726 1.38516495492
0.092828218898 2.14305985127 1.01947191455 1.38141534277
0.094281047701 2.14310945921 1.01653829021 1.37774094545
0.095735480065 2.14319350287 1.01364769907 1.37413284473
0.097191446324 2.14332875094 1.01081203142 1.37060628681
0.098648875601 2.14351985137 1.00802972803 1.36716108031
0.10010771222 2.14369864006 1.00525904118 1.36373441873
0.10156789763 2.14391700738 1.00253694092 1.360379838
0.10302938076 2.1441635928 0.999843445457 1.35707092688
0.1044921138 2.14443156158 0.997183029323 1.35381254697
0.10595605292 2.14471172514 0.994554856081 1.35060330638
0.10742116071 2.14500432166 0.991949049799 1.34742894792
0.10888739892 2.14531162192 0.989374663309 1.34430036656
0.1103547389 2.14562439509 0.986820595136 1.34120300099
0.11182314997 2.14594797006 0.984289848807 1.33814167542
0.11329260745 2.14627184881 0.981782584195 1.33511606126
0.11476308524 2.14660367563 0.979294594817 1.33212169783
0.1162345646 2.14694589901 0.976830797476 1.32916603509
0.11770702477 2.14729491195 0.974388051302 1.32624362619
0.11918044612 2.14764592479 0.971963465717 1.32335039183
0.12065481329 2.14800551406 0.96956540913 1.32049638699
0.12213011085 2.14836886719 0.967187958054 1.31767333655
0.12360632199 2.148743005 0.964833215647 1.31488599335
0.1250834336 2.14913860433 0.962514843696 1.31215310091
0.12656143313 2.14948410391 0.960181253514 1.30939936328
0.12804030415 2.14987930066 0.957896156079 1.30671947398
0.12952003648 2.150277297 0.955632424412 1.30407093466
0.13100061607 2.15068752564 0.953387766002 1.30145397605
0.13248203135 2.15109982117 0.951165982175 1.29887106642
0.13396426873 2.15152843265 0.948970436192 1.29632874941
0.13544731715 2.15195246197 0.946791591807 1.29381119983
0.13693116224 2.15239868613 0.944635454236 1.29133390982
0.13841579214 2.15286490575 0.942508239819 1.28890056619
0.13990119623 2.15332698136 0.940396284357 1.28649129225
0.14138736186 2.153811192 0.938311597689 1.28412458099
0.14287427764 2.15430752336 0.936248622028 1.28179212819
0.14436193145 2.15480565826 0.934204702654 1.27948900782
0.14585031175 2.15531680158 0.932188880744 1.27722786525
0.14733940697 2.15584468684 0.930197238607 1.27500431953
0.1488292061 2.15637537012 0.9282238159 1.27280871591
0.15031969743 2.15693943833 0.926280856626 1.27066187551
0.15181087117 2.157473106 0.92434006137 1.26851712422
0.15330271615 2.15805011998 0.922439343023 1.2664331366
0.15479522115 2.15860679762 0.920535791649 1.26435114607
0.15628837623 2.15918410782 0.918668649139 1.26231652766
0.15778217137 2.1597652546 0.916817804336 1.260309089
0.15927659586 2.16036276117 0.914986781758 1.25833315822
0.16077163826 2.16096788893 0.913174958523 1.25638566055
0.16226728975 2.16157789521 0.911378804771 1.25446372796
0.16376354147 2.16219162019 0.909604916963 1.25257048253
0.1652603825 2.16281771875 0.907848593737 1.2507051618
0.16675780321 2.1634513995 0.906106566351 1.24886373603
0.16825579798 2.16407377535 0.904382982503 1.24704657587
0.1697543571 2.16472051865 0.902677654123 1.24525847246
0.17125346743 2.16537161463 0.900989451178 1.24349614813
0.17275312392 2.16601334226 0.899311756729 1.24175441875
0.17425331673 2.16668388835 0.897656422347 1.24003801536
0.17575403597 2.16734368979 0.896013494052 1.2383437654
0.17725527445 2.16800965924 0.894386115938 1.23667160254
0.17875702424 2.16868124954 0.892772667377 1.23502216545
0.18025927603 2.16934023738 0.891173403184 1.23338749508
0.18176202115 2.17003528871 0.889588688274 1.23178201059
0.18326525431 2.17071773007 0.888018326851 1.23019224121
0.18476896677 2.17140158235 0.8864611447 1.22862178455
0.18627314906 2.17208567651 0.88491867781 1.22707022902
0.18777779719 2.17276528472 0.883388079332 1.22553268292
0.18928290162 2.17345271307 0.881873933801 1.22401791739
0.19078845762 2.17412551455 0.880374700576 1.22251514068
0.19229445975 2.17480588405 0.878887406071 1.22103050296
0.19380090253 2.17548901035 0.877414151395 1.21956110318
0.19530778048 2.17616997242 0.875954875977 1.21810921444
0.196815086 2.1768563794 0.874506825094 1.21667329717
0.19832281353 2.17753817793 0.87307332132 1.21525305869
0.19983095961 2.17821956254 0.87164804668 1.21384420547
0.20133951866 2.17889777357 0.870237631927 1.2124521061
0.20284848578 2.17958929975 0.868835211005 1.21107125
0.20435785533 2.18026795007 0.867448192748 1.2097098559
0.20586762237 2.18094340074 0.866069536767 1.20835682714
0.20737778123 2.18162849356 0.864698388115 1.20701885286
0.20888833046 2.18230113068 0.863343365961 1.20569406366
0.21039926293 2.1829774138 0.861995663625 1.20438064787
0.21191057362 2.18365757381 0.860657966738 1.20308048905
0.2134222582 2.18433618955 0.859328907698 1.20179131853
0.21493431373 2.18501562876 0.858012604697 1.20051684194
0.21644673371 2.18569191044 0.856698009466 1.19924782186
0.21795951591 2.18636801827 0.85539618576 1.19799304898
0.21947265876 2.18704377561 0.854103079096 1.1967488353
0.22098615215 2.18771952179 0.852819348947 1.19551648248
0.22249999737 2.1883915047 0.851541424733 1.19429189114
0.22401418853 2.18907018335 0.850276395603 1.19308488704
0.22552872332 2.18974237869 0.849016001822 1.19188442017
0.22704359728 2.19041683279 0.847763070278 1.19069379989
0.22855880735 2.19108600432 0.84651707199 1.18951314586
0.23007434974 2.19175356325 0.845278430913 1.18834241752
0.23159021993 2.19242217719 0.844046946852 1.18718206842
0.23310641483 2.19308966323 0.842822951119 1.18603171015
0.23462293134 2.19375415086 0.841605859323 1.18489065351
0.23613976706 2.19441704004 0.840394778735 1.18375823661
0.23765691743 2.19507785373 0.839190593529 1.18263514297
0.23917437856 2.19573993308 0.837992151154 1.18152059481
0.24069214731 2.19639630503 0.836798750183 1.18041318352
0.24221022124 2.19705241106 0.835612257884 1.17931545389
0.24372859498 2.19770568646 0.834431679371 1.17822562427
0.24524726681 2.19836136724 0.833257855093 1.17714582025
0.24676623279 2.19901231776 0.832088806834 1.17607276418
0.24828548972 2.19966345118 0.830924674999 1.17500731275
0.24980503435 2.20031278521 0.829765376315 1.17394941944
0.25132486347 2.20095910229 0.828610467861 1.1728983416
0.25284497381 2.2016034947 0.827462080399 1.17185645479
0.25436536213 2.20224489327 0.826318638992 1.17082174943
0.25588602589 2.20288412906 0.825181042501 1.16979543139
0.25740696181 2.2035203864 0.824046478901 1.16877501999
0.25892806521 2.20414645169 0.822915469659 1.16775816594
0.26044853639 2.2047795111 0.821792768712 1.16675550937
0.26196821496 2.20540411326 0.820673437877 1.1657573959
0.26348710377 2.20602447512 0.819559905668 1.1647666373
0.26500520787 2.20663953891 0.81845136734 1.16378265618
0.26652253084 2.20725044195 0.817347675741 1.16280631893
0.26803907627 2.20785915903 0.816249087411 1.16183737113
0.26955484696 2.20846504698 0.815155427805 1.16087608232
0.27106984575 2.20906396604 0.814066489803 1.15992094918
0.27258407546 2.20966009508 0.812982523364 1.15897334874
0.27409753666 2.21025257157 0.811903419991 1.15803267915
0.27561023516 2.21084208121 0.810829536051 1.15709967388
0.27712217079 2.21142482686 0.809757917388 1.15617032407
0.27863334561 2.21200801727 0.808693818115 1.15525203147
0.28014376021 2.212584851 0.807632835698 1.15433820689
0.28165341664 2.21315739574 0.806576300867 1.15343066834
0.28316231697 2.21372576304 0.80552452778 1.15252979182
0.28467046177 2.21429066847 0.804477305828 1.15163556175
0.28617785684 2.21485265138 0.803435002395 1.15074827657
0.28768449751 2.21541182072 0.802396877142 1.1498670983
0.28919038959 2.21596474678 0.801362897444 1.14899159381
0.29069553288 2.21651509794 0.800333132306 1.14812207478
0.2921999272 2.21706126797 0.799307648756 1.14725826575
0.29370357237 2.21760394087 0.798286532604 1.14640030601
0.29520647494 2.21814368697 0.797269271507 1.14554770458
0.29670862871 2.21867850146 0.796256652718 1.14470142675
0.29821003502 2.21921022927 0.795248073468 1.14386045205
0.29971069665 2.21973843974 0.794244153348 1.14302504889
0.30121061493 2.22026348912 0.793244295909 1.14219528005
0.30270979041 2.22078497646 0.792247719799 1.14137012658
0.30420822365 2.22130397223 0.791255582885 1.14055047717
0.30570591519 2.22182400729 0.790270144668 1.13973921418
0.30720286411 2.22235426657 0.789296561433 1.13894336633
0.30869907244 2.22288749133 0.78832912072 1.13815539342
0.31019454226 2.22343472658 0.787376583194 1.13738666649
0.31168927487 2.22397522436 0.786426397808 1.13661959854
0.31318327456 2.22451770217 0.785482191653 1.13585961407
0.31467654416 2.22505864484 0.784544176762 1.13510552602
0.31616908645 2.22559543547 0.783610080775 1.13435464999
0.31766090575 2.22613299595 0.782682363077 1.13361054801
0.31915200635 2.22666084848 0.781758745369 1.13286920906
0.32064239407 2.22718639623 0.780839148384 1.13213187708
0.3221320747 2.22772651652 0.779933162607 1.13140543253
0.32362105028 2.22824852093 0.77902384233 1.13067863469
0.32510932661 2.22878251988 0.778127149653 1.12997193349
0.32659690723 2.22929513308 0.777225165442 1.12925271107
0.32808379643 2.22980245331 0.776325296646 1.12853396577
0.3295699985 2.23030522561 0.775429133968 1.12781919742
0.33105551472 2.23079608582 0.77453166988 1.12709965721
0.33254035088 2.23129613569 0.773643736365 1.12639520352
0.33402451126 2.23178779542 0.7727577044 1.12569109533
0.33550799714 2.2322872132 0.771880528924 1.12500018244
0.33699081129 2.23278541387 0.771008316583 1.12431601139
0.33847295799 2.23327550726 0.770136261456 1.12362990962
0.33995443625 2.2337616654 0.769267113483 1.12294673386
0.34143524883 2.2342355976 0.76839666154 1.12225897074
0.34291539623 2.23470782294 0.767530145991 1.12157539951
0.34439488427 2.23517091295 0.76666407449 1.12089074482
0.34587371495 2.23564900415 0.765810383906 1.12022608233
0.34735189256 2.23612455893 0.764960113208 1.11956467213
0.34882941912 2.23658492132 0.764106153621 1.11889480781
0.35030629739 2.23703672086 0.763251415037 1.11822154985
0.35178252863 2.23749854275 0.762409393014 1.11756865484
0.35325811485 2.2379553056 0.761567308848 1.11691382369
0.35473305882 2.23839828213 0.760720797617 1.11625019163
0.35620736559 2.23885908315 0.759889574232 1.11561064855
0.35768102728 2.23930913034 0.759055834876 1.11496498326
0.3591540558 2.23975360587 0.758224405465 1.11432182191
0.36062645086 2.24019395852 0.757394908393 1.11368042609
0.36209821601 2.24063066497 0.756568078265 1.11304164251
0.36356935552 2.2410649252 0.755743599606 1.11240549023
0.36503986684 2.2414968644 0.754922188891 1.1117726476
0.36650975654 2.24192547304 0.754102873432 1.11114175872
0.36797902587 2.24235280722 0.753287162275 1.11051507028
0.36944767912 2.2427763074 0.752473251033 1.10988989225
0.37091571372 2.24319781134 0.751662400353 1.10926827737
0.37238313549 2.24361826552 0.750853747964 1.10864919906
0.37384994338 2.24403352983 0.750047233356 1.10803188426
0.37531613939 2.24444750498 0.749243400555 1.1074177183
0.37678172478 2.24486147168 0.74844165988 1.10680606806
0.37824670001 2.24526991052 0.74764231068 1.10619651211
0.37971106862 2.24567744276 0.746845611657 1.10558999532
0.38117482955 2.24608193869 0.746051443195 1.1049860381
0.38263798635 2.24648589196 0.745258933222 1.10438403644
0.38410053872 2.246883425 0.74446869311 1.10378408406
0.38556248867 2.24728258234 0.743680720571 1.10318700362
0.38702383666 2.24767857968 0.742895090546 1.10259227093
0.38848458395 2.24807042994 0.742111489022 1.10199919216
0.3899447333 2.24846063827 0.741330446476 1.10140901575
0.39140428442 2.24884877534 0.740551535085 1.10082093266
0.39286323932 2.24923383334 0.73977487 1.1002350578
0.3943215977 2.24961894408 0.739000941861 1.09965241552
0.3957793654 2.25000154005 0.738228777017 1.09907145248
0.3972365406 2.25038089731 0.737457987225 1.09849222629
0.39869312683 2.25076141499 0.736691210473 1.0979174682
0.40014912303 2.25113839564 0.73592542283 1.09734337725
0.40160453352 2.25151361055 0.73516171583 1.09677149041
0.4030593603 2.25188083829 0.734395951741 1.0961947339
0.40451360384 2.25225255059 0.733636823777 1.09562776278
0.40596726692 2.25262273107 0.732880603101 1.09506364707
0.40742035078 2.25299365658 0.732128051139 1.09450415366
0.40887285511 2.25336018846 0.731376398902 1.09394469082
0.41032478038 2.25372511839 0.73062708455 1.09338779713
0.41177612936 2.25408877007 0.729879380248 1.09283271548
0.41322690252 2.25444975353 0.729133969161 1.09227977946
0.41467710188 2.25480720248 0.728390128745 1.09172800863
0.41612672789 2.25516401144 0.727650176573 1.09118130216
0.41757578257 2.25551694139 0.726910157075 1.09063331566
0.41902426482 2.25586912037 0.726172244309 1.09008776061
0.42047217589 2.25621764107 0.72543640818 1.08954420042
0.42191951856 2.2565654596 0.724701940444 1.08900201593
0.4233662933 2.25691033464 0.723969565105 1.08846198825
0.42481249824 2.25725187019 0.723239099589 1.0879232984
0.42625813771 2.25759162454 0.722510451656 1.08738668108
0.42770321141 2.25792826298 0.72178310071 1.08685103488
0.42914772135 2.25826439419 0.721058309959 1.08631828715
0.43059166643 2.25859799619 0.720334458069 1.08578620574
0.43203504868 2.25893096252 0.719612746932 1.08525718117
0.43347786697 2.25926072923 0.7188930479 1.08472953274
0.43492012257 2.25958966242 0.718175404666 1.08420412028
0.43636181905 2.25991741022 0.717458612547 1.08367985496
0.43780295685 2.26024334477 0.716743653822 1.08315762475
0.43924353646 2.26056829461 0.716030477385 1.08263732404
0.44068355753 2.26088751108 0.715318623654 1.08211814763
0.4421230213 2.26120819596 0.714609281053 1.08160186049
0.44356192981 2.26152635977 0.713901588742 1.08108678552
0.44500028506 2.26184437949 0.713196409435 1.08057453397
0.44643808675 2.2621594215 0.712492741374 1.08006362673
0.44787533687 2.26247271182 0.711791228577 1.07955490037
0.44931203512 2.26278509655 0.711091285774 1.07904768025
0.45074818351 2.26309557503 0.710392935274 1.07854222386
0.45218378171 2.26340360535 0.709696129721 1.07803807307
0.45361883097 2.26370892957 0.709000201073 1.07753472136
0.45505333016 2.26401511663 0.708306980453 1.07703441951
0.4564872821 2.26432101482 0.707616371158 1.07653711826
0.45792068489 2.26462035391 0.706923817762 1.07603645411
0.45935353896 2.26491979372 0.706234633758 1.07553962861
0.46078584716 2.26521885835 0.705546917203 1.07504457343
0.46221761071 2.26551815099 0.70486141456 1.07455202921
0.46364883086 2.2658118321 0.70417625521 1.07405895825
0.46507950727 2.26610474882 0.703492351244 1.07356742353
0.46650964356 2.26639631246 0.702811122012 1.07307822517
0.46793923623 2.26668629827 0.702130740532 1.07258989647
0.46936828889 2.26697438325 0.701452502914 1.07210368594
0.47079680199 2.26726301069 0.700775949676 1.07161961079
0.47222477599 2.26754799416 0.700100169639 1.07113560716
0.47365221292 2.26783170828 0.699426121779 1.07065331766
0.47507911324 2.26811357916 0.698753529513 1.07017235616
0.47650547978 2.26839426939 0.698082144777 1.06969258868
0.47793131139 2.26867141423 0.697411920651 1.06921337362
0.47935661013 2.26894995532 0.696743869568 1.0687369492
0.48078137644 2.26922492187 0.696076649769 1.0682607068
0.48220561077 2.26949909843 0.695410985255 1.06778597226
0.48362931517 2.26977151936 0.694746587488 1.06731257039
0.48505249007 2.2700451013 0.694085578851 1.06684392614
0.48647513595 2.27031413749 0.693424169053 1.06637352731
0.48789725403 2.27058267206 0.692764215204 1.06590465108
0.48931884478 2.27084843896 0.692104559963 1.06543518678
0.49073990864 2.27111476891 0.691446749481 1.06496819754
0.49216044686 2.27137548666 0.690789415759 1.06450104184
0.49358045988 2.27163629415 0.690134891879 1.06403718391
0.49499994817 2.27189666143 0.689481339102 1.06357411802
0.49641891296 2.27215375043 0.688828607166 1.06311161828
0.49783735471 2.27241269554 0.688178318581 1.06265225326
0.49925527306 2.27266788576 0.687528028835 1.06219218762
0.50067266845 2.27293416497 0.686879905275 1.06173298174
0.50208954296 2.27318481369 0.686235786774 1.06128183547
0.50350589702 2.27343039736 0.685589011338 1.06082508742
0.50492173028 2.27368003933 0.684944687239 1.06037082788
0.5063370464 2.27392942558 0.684302248282 1.05991858865
0.50775184664 2.27417772935 0.683661103948 1.05946758413
0.50916612903 2.27442337282 0.683020818015 1.05901714504
0.51057989724 2.27466776529 0.682382126928 1.0585684318
0.51199315253 2.27491036513 0.681744940818 1.058121037
0.51340589212 2.27515232358 0.681108744798 1.05767450641
0.51481812129 2.2753920398 0.680473764741 1.05722894529
0.51622983807 2.27563141378 0.679840315713 1.05678511663
0.51764103967 2.27586802372 0.679207255147 1.05634128751
0.51905173546 2.27610535895 0.67857591306 1.05589949557
0.52046191532 2.27633933303 0.677945376756 1.05545792595
0.52187158621 2.27657256451 0.677316060124 1.05501767155
0.52328074938 2.27680555293 0.676688732075 1.05457942062
0.52468940772 2.27703649485 0.676062285389 1.05414189108
0.52609756411 2.27726565284 0.675437354495 1.05370557274
0.52750521248 2.27749496172 0.674813918913 1.05327098958
0.52891235737 2.27772162713 0.674191387227 1.05283717267
0.53031899839 2.27794901626 0.673570062105 1.05240465299
0.53172514007 2.27817081258 0.672948385994 1.05197078883
0.53313078286 2.27839934174 0.672331525113 1.05154330068
0.53453592721 2.27862241078 0.671714498326 1.0511146375
0.53594057437 2.27884499374 0.671098450903 1.05068709342
0.53734472643 2.27906641737 0.670484233184 1.05026122034
0.53874838302 2.27928606127 0.669871075322 1.04983621231
0.54015154622 2.27950524312 0.669259290972 1.04941264306
0.5415542173 2.27972378324 0.668649251239 1.04899092703
0.54295639753 2.27994284207 0.668041445778 1.04857149819
0.54435808653 2.28015763587 0.667432143633 1.04814974472
0.54575928802 2.28037262007 0.666825756258 1.04773150041
0.54716000165 2.28058728006 0.666220499685 1.0473144247
0.54856022868 2.28080071873 0.665616382753 1.04689829097
0.54995996872 2.28101410061 0.665013720602 1.04648381506
0.55135922387 2.2812203233 0.664412036222 1.04607003492
0.55275799459 2.28143239265 0.663812394709 1.0456577503
0.55415628379 2.28164608257 0.663213725492 1.04524725658
0.5555540911 2.28185494413 0.662616163756 1.04483730147
0.55695141861 2.28206301493 0.662019998474 1.0444288186
0.55834826759 2.28226939626 0.661424328875 1.04402047203
0.55974463934 2.28247577816 0.66083026053 1.0436137881
0.56114053179 2.28268133831 0.660237911854 1.04320873163
0.56253595038 2.28288673464 0.659646859033 1.0428052379
0.56393089307 2.28309073408 0.659056927045 1.0424023946
0.56532536196 2.28329512202 0.658469504134 1.04200221474
0.56671935834 2.28349404203 0.657880970294 1.0415998571
0.56811288264 2.28369625979 0.657295470407 1.0412012299
0.56950593532 2.28389566168 0.656710275402 1.04080248116
0.57089851849 2.28409577993 0.65612698182 1.04040591114
0.57229063177 2.28429370369 0.655544822136 1.04001029261
0.57368227643 2.28449255883 0.654964045236 1.03961626501
0.5750734546 2.28468919649 0.654383571769 1.03922205349
0.57646416422 2.2848842405 0.653804120246 1.03882876047
0.57785440824 2.28507642726 0.653224982861 1.03843517954
0.57924418963 2.28527106967 0.652648414825 1.03804501171
0.58063350632 2.28546284904 0.652072746297 1.03765527811
0.58202236043 2.28565353507 0.65149793009 1.03726618534
0.58341075242 2.28584242221 0.650924526367 1.03687824268
0.58479868442 2.2860317843 0.650352519918 1.03649173419
0.58618615603 2.28621901937 0.64978160801 1.03610620921
0.58757316854 2.28640565731 0.649211921164 1.03572182918
0.58895972325 2.28659148849 0.648643366378 1.03533856374
0.59034582229 2.28677614599 0.648075740801 1.03495592297
0.59173146527 2.28695984872 0.64750910901 1.03457414033
0.59311665434 2.28714312546 0.646943906964 1.03419375844
0.59450138993 2.28732531711 0.646379977186 1.03381455249
0.59588567334 2.28750679211 0.645816930351 1.03343613305
0.59726950588 2.28768844896 0.64525619319 1.03306002893
0.59865288715 2.28786695646 0.644695314978 1.03268308408
0.60003582015 2.28804555771 0.644136096537 1.03230800406
0.60141830447 2.2882228779 0.643578022716 1.03193402426
0.60280034227 2.28840013649 0.643020878136 1.03156095885
0.6041819323 2.28857648398 0.642465034587 1.03118904352
0.60556307841 2.28875273699 0.641910435085 1.03081840201
0.60694377937 2.28892753295 0.641356919481 1.03044864205
0.60832403732 2.2891021706 0.640804458693 1.03007997667
0.60970385357 2.28927702598 0.64025333236 1.02971277895
0.61108322858 2.28944907504 0.639702741935 1.0293455146
0.61246216365 2.28962172447 0.639153343854 1.02897962286
0.6138406601 2.28979434343 0.63860497081 1.02861489825
0.61521871838 2.28996524014 0.63805738918 1.02825058552
0.61659633895 2.29013571319 0.637511085485 1.02788765293
0.61797352397 2.29030566823 0.636965881448 1.02752567353
0.61935027476 2.29047449652 0.636421745785 1.02716458616
0.62072659178 2.29064281669 0.635879001609 1.02680478567
0.62210247291 2.29081047133 0.635337327039 1.02644597336
0.6234779229 2.29097679216 0.634796271172 1.02608756022
0.62485294135 2.29114244195 0.634256554556 1.02573045373
0.62622752872 2.29130783777 0.633717962601 1.02537439279
0.62760169152 2.29147230795 0.633180376299 1.02501930055
0.62897542154 2.29163587356 0.632643798835 1.02466502453
0.63034872705 2.2917981342 0.632108284468 1.02431156734
0.63172160504 2.29196073134 0.631573927416 1.02395936234
0.63309405683 2.29212299687 0.631041393898 1.02360898412
0.63446608375 2.29228280967 0.63050849975 1.02325769848
0.63583768974 2.29244240241 0.629977410897 1.02290834248
0.63720887177 2.29260271002 0.629447971565 1.02256072657
0.63857963206 2.29276067159 0.628919339641 1.02221363999
0.63994997105 2.29291868712 0.62839171067 1.02186770391
0.64131989008 2.29307602209 0.627865205144 1.02152278699
0.64268938875 2.29323192228 0.627339406235 1.02117831473
0.64405846839 2.29338739244 0.626814497123 1.02083455855
0.6454271277 2.29354315864 0.626290926927 1.02049243273
0.64679536891 2.2936955486 0.625768176251 1.0201506626
0.64816319072 2.29385015225 0.625246909931 1.01981076932
0.64953059622 2.29400238083 0.624726381724 1.01947117746
0.65089758413 2.2941551772 0.624207129169 1.01913312674
0.65226415667 2.29430634248 0.623688851913 1.01879600325
0.65363031253 2.29445800308 0.623171547205 1.01845985355
0.65499605572 2.29460812012 0.622655423196 1.01812464542
0.65636138316 2.29475815618 0.622140304334 1.01779048061
0.65772629796 2.29490797385 0.62162657433 1.017457689
0.65909079883 2.29505782933 0.621114182801 1.01712626157
0.66045488535 2.29520669153 0.620602587507 1.01679544665
0.66181856063 2.29535537838 0.620092160093 1.01646576076
0.66318182426 2.29550266714 0.619582780201 1.01613677589
0.66454467671 2.29564906264 0.619074383069 1.01580861418
0.66590711844 2.29579729144 0.618567594914 1.01548247735
0.66726915169 2.29594390132 0.61806142246 1.01515660907
0.66863077783 2.29609001591 0.617556347593 1.01483179837
0.66999199553 2.29623642438 0.617052730979 1.01450851495
0.67135280618 2.29638076764 0.61654951305 1.01418508636
0.67271321111 2.29652446989 0.616047402694 1.01386253597
0.67407321081 2.29666802099 0.61554679961 1.01354167716
0.67543280574 2.29680838775 0.615046378899 1.01322061906
0.67679199727 2.29695037318 0.61454847767 1.01290252173
0.67815078407 2.29708877958 0.614048317953 1.01258106725
0.67950916932 2.29722797203 0.613550005151 1.01226168952
0.68086715078 2.29736639807 0.613053458229 1.01194410221
0.68222473163 2.29750482745 0.612557682803 1.011627194
0.68358191144 2.29764463241 0.612063321854 1.01131198638
0.68493869248 2.29778292243 0.611569648867 1.01099710725
0.68629507343 2.29792066282 0.611077362987 1.01068357073
0.68765105566 2.2980578664 0.610586287875 1.0103709901
0.68900664145 2.29819456737 0.610096241188 1.0100593202
0.69036182766 2.29833188854 0.609607422149 1.00974877043
0.69171661839 2.29846865414 0.609119736968 1.00943931743
0.69307101229 2.29860487622 0.608633080155 1.00913079579
0.69442501167 2.29874102262 0.608147426835 1.0088233127
0.69577861609 2.29887625757 0.607662645597 1.00851642154
0.69713182693 2.29901079198 0.607179017685 1.00821062518
0.69848464377 2.29914526219 0.60669641326 1.00790580254
0.69983706799 2.29927924013 0.606215140066 1.00760232901
0.70118910098 2.29941402108 0.605736011045 1.00730132412
0.70254074141 2.29954734965 0.605257243865 1.00700017687
0.70389199157 2.29968144453 0.604780138875 1.00670063379
0.70524285011 2.29981673611 0.604305061458 1.00640358189
0.70659331935 2.29995717937 0.603833510261 1.00610951046
0.70794339793 2.30010152709 0.60336505836 1.00581909437
0.70929308818 2.30023786206 0.60289355247 1.00552491321
0.71064239057 2.30037133639 0.602421729599 1.00523025602
0.71199130466 2.30050317624 0.601949899669 1.00493521056
0.71333983464 2.30063457803 0.601478896965 1.00464077425
0.71468797821 2.30076641187 0.601009806252 1.00434852981
0.71603573678 2.30089724434 0.600541302754 1.00405677286
0.71738310991 2.30102763508 0.600073354123 1.00376522937
0.7187300953 2.3011578616 0.599606658018 1.00347483085
0.72007669436 2.30128735506 0.599140850675 1.00318515577
0.72142290666 2.30141648067 0.598675886155 1.00289620219
0.72276873825 2.30154529379 0.598211958098 1.00260820115
0.7241141859 2.3016741837 0.597749199268 1.0023213232
0.72545925103 2.301802064 0.597286726741 1.00203386616
0.726803936 2.30193155215 0.596826238949 1.00175012939
0.72814823941 2.30205902016 0.596366447913 1.00146598702
0.72949216271 2.30218672023 0.595907927487 1.00118328879
0.73083570731 2.30231396304 0.595450018518 1.00090088311
0.73217886995 2.30244080775 0.594992405627 1.00061862769
0.733521653 2.30256886528 0.594536490236 1.00033873253
0.73486405695 2.30269481703 0.5940799676 1.00005703214
0.73620608228 2.30282163019 0.593626233295 0.999778814386
0.73754773045 2.30294709627 0.59317330724 0.999501269231
0.73888900193 2.30307276153 0.592720632758 0.999223278007
0.74022989628 2.30319886142 0.592270347886 0.998947972633
0.74157041493 2.30332517335 0.591820584143 0.998673347272
0.74291055743 2.30345116183 0.591371453895 0.998399221143
0.74425032523 2.30357642891 0.590923342596 0.9981258037
0.74558972072 2.30370168782 0.590475610012 0.997852669977
0.74692874249 2.30382662416 0.590029308603 0.997581027659
0.74826739104 2.30395179316 0.589584115944 0.997310419625
0.74960566782 2.30407670911 0.589139779254 0.997040544031
0.75094357334 2.30420146116 0.588696643451 0.996771879033
0.75228110617 2.30432608003 0.588254063829 0.996503610394
0.75361826872 2.30445073342 0.587812536178 0.996236339049